<?xml version="1.0"?>
<VTKFile type="UnstructuredGrid"  version="0.1"  >
<UnstructuredGrid>
<Piece  NumberOfPoints="1695" NumberOfCells="3187">
<Points>
<DataArray  type="Float64"  NumberOfComponents="3"  format="ascii">1.925 0.45625 0  1.925 0.44375 0  1.975 0.44375 0  1.975 0.45625 0  1.925 0.35625 0  1.925 0.34375 0  1.975 0.34375 0  1.975 0.35625 0  1.925 0.25625 0  1.925 0.24375 0  1.975 0.24375 0  1.975 0.25625 0  1.925 0.15625 0  1.925 0.14375 0  1.975 0.14375 0  1.975 0.15625 0  1.925 0.05625 0  1.925 0.04375 0  1.975 0.04375 0  1.975 0.05625 0  1.825 0.45625 0  1.825 0.44375 0  1.875 0.44375 0  1.875 0.45625 0  1.825 0.35625 0  1.825 0.34375 0  1.875 0.34375 0  1.875 0.35625 0  1.825 0.25625 0  1.825 0.24375 0  1.875 0.24375 0  1.875 0.25625 0  1.825 0.15625 0  1.825 0.14375 0  1.875 0.14375 0  1.875 0.15625 0  1.825 0.05625 0  1.825 0.04375 0  1.875 0.04375 0  1.875 0.05625 0  1.725 0.45625 0  1.725 0.44375 0  1.775 0.44375 0  1.775 0.45625 0  1.725 0.35625 0  1.725 0.34375 0  1.775 0.34375 0  1.775 0.35625 0  1.725 0.25625 0  1.725 0.24375 0  1.775 0.24375 0  1.775 0.25625 0  1.725 0.15625 0  1.725 0.14375 0  1.775 0.14375 0  1.775 0.15625 0  1.725 0.05625 0  1.725 0.04375 0  1.775 0.04375 0  1.775 0.05625 0  1.625 0.45625 0  1.625 0.44375 0  1.675 0.44375 0  1.675 0.45625 0  1.625 0.35625 0  1.625 0.34375 0  1.675 0.34375 0  1.675 0.35625 0  1.625 0.25625 0  1.625 0.24375 0  1.675 0.24375 0  1.675 0.25625 0  1.625 0.15625 0  1.625 0.14375 0  1.675 0.14375 0  1.675 0.15625 0  1.625 0.05625 0  1.625 0.04375 0  1.675 0.04375 0  1.675 0.05625 0  1.525 0.45625 0  1.525 0.44375 0  1.575 0.44375 0  1.575 0.45625 0  1.525 0.35625 0  1.525 0.34375 0  1.575 0.34375 0  1.575 0.35625 0  1.525 0.25625 0  1.525 0.24375 0  1.575 0.24375 0  1.575 0.25625 0  1.525 0.15625 0  1.525 0.14375 0  1.575 0.14375 0  1.575 0.15625 0  1.525 0.05625 0  1.525 0.04375 0  1.575 0.04375 0  1.575 0.05625 0  1.425 0.45625 0  1.425 0.44375 0  1.475 0.44375 0  1.475 0.45625 0  1.425 0.35625 0  1.425 0.34375 0  1.475 0.34375 0  1.475 0.35625 0  1.425 0.25625 0  1.425 0.24375 0  1.475 0.24375 0  1.475 0.25625 0  1.425 0.15625 0  1.425 0.14375 0  1.475 0.14375 0  1.475 0.15625 0  1.425 0.05625 0  1.425 0.04375 0  1.475 0.04375 0  1.475 0.05625 0  1.325 0.45625 0  1.325 0.44375 0  1.375 0.44375 0  1.375 0.45625 0  1.325 0.35625 0  1.325 0.34375 0  1.375 0.34375 0  1.375 0.35625 0  1.325 0.25625 0  1.325 0.24375 0  1.375 0.24375 0  1.375 0.25625 0  1.325 0.15625 0  1.325 0.14375 0  1.375 0.14375 0  1.375 0.15625 0  1.325 0.05625 0  1.325 0.04375 0  1.375 0.04375 0  1.375 0.05625 0  1.225 0.45625 0  1.225 0.44375 0  1.275 0.44375 0  1.275 0.45625 0  1.225 0.35625 0  1.225 0.34375 0  1.275 0.34375 0  1.275 0.35625 0  1.225 0.25625 0  1.225 0.24375 0  1.275 0.24375 0  1.275 0.25625 0  1.225 0.15625 0  1.225 0.14375 0  1.275 0.14375 0  1.275 0.15625 0  1.225 0.05625 0  1.225 0.04375 0  1.275 0.04375 0  1.275 0.05625 0  1.125 0.45625 0  1.125 0.44375 0  1.175 0.44375 0  1.175 0.45625 0  1.125 0.35625 0  1.125 0.34375 0  1.175 0.34375 0  1.175 0.35625 0  1.125 0.25625 0  1.125 0.24375 0  1.175 0.24375 0  1.175 0.25625 0  1.125 0.15625 0  1.125 0.14375 0  1.175 0.14375 0  1.175 0.15625 0  1.125 0.05625 0  1.125 0.04375 0  1.175 0.04375 0  1.175 0.05625 0  1.025 0.45625 0  1.025 0.44375 0  1.075 0.44375 0  1.075 0.45625 0  1.025 0.35625 0  1.025 0.34375 0  1.075 0.34375 0  1.075 0.35625 0  1.025 0.25625 0  1.025 0.24375 0  1.075 0.24375 0  1.075 0.25625 0  1.025 0.15625 0  1.025 0.14375 0  1.075 0.14375 0  1.075 0.15625 0  1.025 0.05625 0  1.025 0.04375 0  1.075 0.04375 0  1.075 0.05625 0  0.9249999999999999 0.45625 0  0.9249999999999999 0.44375 0  0.975 0.44375 0  0.975 0.45625 0  0.9249999999999999 0.35625 0  0.9249999999999999 0.34375 0  0.975 0.34375 0  0.975 0.35625 0  0.9249999999999999 0.25625 0  0.9249999999999999 0.24375 0  0.975 0.24375 0  0.975 0.25625 0  0.9249999999999999 0.15625 0  0.9249999999999999 0.14375 0  0.975 0.14375 0  0.975 0.15625 0  0.9249999999999999 0.05625 0  0.9249999999999999 0.04375 0  0.975 0.04375 0  0.975 0.05625 0  0.825 0.45625 0  0.825 0.44375 0  0.875 0.44375 0  0.875 0.45625 0  0.825 0.35625 0  0.825 0.34375 0  0.875 0.34375 0  0.875 0.35625 0  0.825 0.25625 0  0.825 0.24375 0  0.875 0.24375 0  0.875 0.25625 0  0.825 0.15625 0  0.825 0.14375 0  0.875 0.14375 0  0.875 0.15625 0  0.825 0.05625 0  0.825 0.04375 0  0.875 0.04375 0  0.875 0.05625 0  0.725 0.45625 0  0.725 0.44375 0  0.775 0.44375 0  0.775 0.45625 0  0.725 0.35625 0  0.725 0.34375 0  0.775 0.34375 0  0.775 0.35625 0  0.725 0.25625 0  0.725 0.24375 0  0.775 0.24375 0  0.775 0.25625 0  0.725 0.15625 0  0.725 0.14375 0  0.775 0.14375 0  0.775 0.15625 0  0.725 0.05625 0  0.725 0.04375 0  0.775 0.04375 0  0.775 0.05625 0  0.625 0.45625 0  0.625 0.44375 0  0.675 0.44375 0  0.675 0.45625 0  0.625 0.35625 0  0.625 0.34375 0  0.675 0.34375 0  0.675 0.35625 0  0.625 0.25625 0  0.625 0.24375 0  0.675 0.24375 0  0.675 0.25625 0  0.625 0.15625 0  0.625 0.14375 0  0.675 0.14375 0  0.675 0.15625 0  0.625 0.05625 0  0.625 0.04375 0  0.675 0.04375 0  0.675 0.05625 0  0.525 0.45625 0  0.525 0.44375 0  0.5750000000000001 0.44375 0  0.5750000000000001 0.45625 0  0.525 0.35625 0  0.525 0.34375 0  0.5750000000000001 0.34375 0  0.5750000000000001 0.35625 0  0.525 0.25625 0  0.525 0.24375 0  0.5750000000000001 0.24375 0  0.5750000000000001 0.25625 0  0.525 0.15625 0  0.525 0.14375 0  0.5750000000000001 0.14375 0  0.5750000000000001 0.15625 0  0.525 0.05625 0  0.525 0.04375 0  0.5750000000000001 0.04375 0  0.5750000000000001 0.05625 0  0.425 0.45625 0  0.425 0.44375 0  0.475 0.44375 0  0.475 0.45625 0  0.425 0.35625 0  0.425 0.34375 0  0.475 0.34375 0  0.475 0.35625 0  0.425 0.25625 0  0.425 0.24375 0  0.475 0.24375 0  0.475 0.25625 0  0.425 0.15625 0  0.425 0.14375 0  0.475 0.14375 0  0.475 0.15625 0  0.425 0.05625 0  0.425 0.04375 0  0.475 0.04375 0  0.475 0.05625 0  0.325 0.45625 0  0.325 0.44375 0  0.375 0.44375 0  0.375 0.45625 0  0.325 0.35625 0  0.325 0.34375 0  0.375 0.34375 0  0.375 0.35625 0  0.325 0.25625 0  0.325 0.24375 0  0.375 0.24375 0  0.375 0.25625 0  0.325 0.15625 0  0.325 0.14375 0  0.375 0.14375 0  0.375 0.15625 0  0.325 0.05625 0  0.325 0.04375 0  0.375 0.04375 0  0.375 0.05625 0  0.225 0.45625 0  0.225 0.44375 0  0.275 0.44375 0  0.275 0.45625 0  0.225 0.35625 0  0.225 0.34375 0  0.275 0.34375 0  0.275 0.35625 0  0.225 0.25625 0  0.225 0.24375 0  0.275 0.24375 0  0.275 0.25625 0  0.225 0.15625 0  0.225 0.14375 0  0.275 0.14375 0  0.275 0.15625 0  0.225 0.05625 0  0.225 0.04375 0  0.275 0.04375 0  0.275 0.05625 0  0.125 0.45625 0  0.125 0.44375 0  0.175 0.44375 0  0.175 0.45625 0  0.125 0.35625 0  0.125 0.34375 0  0.175 0.34375 0  0.175 0.35625 0  0.125 0.25625 0  0.125 0.24375 0  0.175 0.24375 0  0.175 0.25625 0  0.125 0.15625 0  0.125 0.14375 0  0.175 0.14375 0  0.175 0.15625 0  0.125 0.05625 0  0.125 0.04375 0  0.175 0.04375 0  0.175 0.05625 0  0.025 0.45625 0  0.025 0.44375 0  0.07500000000000001 0.44375 0  0.07500000000000001 0.45625 0  0.025 0.35625 0  0.025 0.34375 0  0.07500000000000001 0.34375 0  0.07500000000000001 0.35625 0  0.025 0.25625 0  0.025 0.24375 0  0.07500000000000001 0.24375 0  0.07500000000000001 0.25625 0  0.025 0.15625 0  0.025 0.14375 0  0.07500000000000001 0.14375 0  0.07500000000000001 0.15625 0  0.025 0.05625 0  0.025 0.04375 0  0.07500000000000001 0.04375 0  0.07500000000000001 0.05625 0  1.65 -0.05 0  1.65 -0.1 0  1.85 -0.1 0  1.85 -0.05 0  1.864644660940673 -0.01464466094067262 0  1.9 0 0  2 0 0  2 0.5 0  1.15 0.5 0  1.114644660940673 0.5146446609406726 0  1.1 0.55 0  1.1 0.6 0  0.9 0.6 0  0.9 0.55 0  0.8853553390593274 0.5146446609406726 0  0.85 0.5 0  0 0.5 0  0 0 0  0.1 0 0  0.1353553390593274 -0.01464466094067263 0  0.15 -0.05 0  0.15 -0.1 0  0.35 -0.1 0  0.35 -0.05 0  0.3646446609406726 -0.01464466094067262 0  0.4 0 0  1.6 0 0  1.635355339059327 -0.01464466094067263 0  0 0.25 0  2 0.25 0  0.425 0.5 0  1.575 0.5 0  1 0 0  0 0.125 0  0 0.375 0  2 0.125 0  2 0.375 0  0.6375 0.5 0  0.2125 0.5 0  1.7875 0.5 0  1.3625 0.5 0  1.3 0 0  0.7 0 0  0 0.0625 0  0 0.1875 0  0 0.4375 0  0 0.3125 0  2 0.0625 0  2 0.1875 0  2 0.4375 0  2 0.3125 0  0.7437499999999999 0.5 0  0.53125 0.5 0  0.10625 0.5 0  0.31875 0.5 0  1.89375 0.5 0  1.68125 0.5 0  1.25625 0.5 0  1.46875 0.5 0  1.45 0 0  1.15 0 0  0.55 0 0  0.85 0 0  0 0.03125 0  0 0.15625 0  0 0.46875 0  0 0.34375 0  2 0.03125 0  2 0.15625 0  2 0.46875 0  2 0.34375 0  0.796875 0.5 0  0.6906249999999999 0.5 0  0.478125 0.5 0  0.584375 0.5 0  0.053125 0.5 0  0.159375 0.5 0  0.371875 0.5 0  0.265625 0.5 0  1.946875 0.5 0  1.840625 0.5 0  1.628125 0.5 0  1.734375 0.5 0  1.203125 0.5 0  1.309375 0.5 0  1.521875 0.5 0  1.415625 0.5 0  1.525 0 0  1.375 0 0  1.075 0 0  1.225 0 0  0.475 0 0  0.625 0 0  0.925 0 0  0.7749999999999999 0 0  1.75 -0.1 0  1 0.6 0  0.25 -0.1 0  1 0.5259510869565217 0  0.2779017857142857 -0.03080357142857143 0  1.777901785714286 -0.03080357142857144 0  1.711202019110897 -0.02208661528871769 0  0.211202019110897 -0.0220866152887176 0  1.05 0.6 0  0.95 0.6 0  1.047668862207724 0.5476688622077241 0  0.9436141896114225 0.5114221172297126 0  1.7 0.4 0  1.8 0.4 0  1.5 0.4 0  1.3 0.4 0  1.2 0.4 0  1.2 0.3 0  1.3 0.3 0  1.5 0.3 0  1.7 0.3 0  1.8 0.3 0  1 0.4 0  1.2 0.2 0  1.3 0.2 0  1.5 0.2 0  1.7 0.2 0  1.8 0.2 0  1.8 0.1 0  1.7 0.1 0  1.5 0.1 0  1.3 0.1 0  1.2 0.1 0  1 0.3 0  0.2 0.4 0  1.9 0.4 0  1.6 0.4 0  1.4 0.4 0  1.1 0.4 0  0.85 0.4 0  0.75 0.4 0  0.65 0.4 0  0.55 0.4 0  0.45 0.4 0  0.35 0.4 0  1 0.2 0  1 0.1 0  0.05 0.4 0  0.35 0.3 0  0.45 0.3 0  1.1 0.3 0  1.4 0.3 0  1.6 0.3 0  1.9 0.3 0  0.85 0.3 0  0.75 0.3 0  0.65 0.3 0  0.55 0.3 0  0.05 0.3 0  0.2 0.3 0  1.1 0.2 0  1.4 0.2 0  1.6 0.2 0  1.9 0.2 0  1.9 0.1 0  1.6 0.1 0  1.4 0.1 0  1.1 0.1 0  0.85 0.2 0  0.85 0.1 0  0.75 0.2 0  0.75 0.1 0  0.65 0.2 0  0.65 0.1 0  0.55 0.2 0  0.55 0.1 0  0.45 0.2 0  0.45 0.1 0  0.35 0.2 0  0.35 0.1 0  0.2 0.2 0  0.2 0.1 0  0.05 0.2 0  0.05 0.1 0  1.95 0 0  1.8 -0.1 0  1.7 -0.1
[...]
<PointData  Tensors="f_225"> 
<DataArray  type="Float64"  Name="f_225"  NumberOfComponents="9" format="ascii">2.8977383828450779e+03 -2.0430646258673146e+03 0.0000000000000000e+00 -2.0430646258673146e+03 7.0326990284272620e+02 0.0000000000000000e+00 0.0000000000000000e+00 0.0000000000000000e+00 0.0000000000000000e+00  1.5627280409999978e+03 -1.8155312982349844e+03 0.0000000000000000e+00 -1.8155312982349844e+03 1.0551088361112836e+02 0.0000000000000000e+00 0.0000000000000000e+00 0.0000000000000000e+00 0.0000000000000000e+00  1.1379738162702088e+03 -5.3630438458564015e+02 0.0000000000000000e+00 -5.3630438458564015e+02 1.3057587206938838e+03 0.0000000000000000e+00 0.0000000000000000e+00 0.0000000000000000e+00 0.0000000000000000e+00  1.3376990032095769e+01 -2.6399145657574991e+02 0.0000000000000000e+00 -2.6399145657574991e+02 4.1174383646391692e+02 0.0000000000000000e+00 0.0000000000000000e+00 0.0000000000000000e+00 0.0000000000000000e+00  4.0065490734864716e+02 -3.5425145696964400e+03 0.0000000000000000e+00 -3.5425145696964400e+03 2.6476164069356691e+03 0.0000000000000000e+00 0.0000000000000000e+00 0.0000000000000000e+00 0.0000000000000000e+00  -6.3383742111484764e+02 -2.7396862528448319e+03 0.0000000000000000e+00 -2.7396862528448319e+03 1.8600990272726003e+03 0.0000000000000000e+00 0.0000000000000000e+00 0.0000000000000000e+00 0.0000000000000000e+00  -1.9812147892075495e+02 -8.1421564151727125e+02 0.0000000000000000e+00 -8.1421564151727125e+02 5.5313196767836253e+03 0.0000000000000000e+00 0.0000000000000000e+00 0.0000000000000000e+00 0.0000000000000000e+00  -9.9769876886348311e+02 -1.4395766921908157e+03 0.0000000000000000e+00 -1.4395766921908157e+03 4.6927361369890541e+03 0.0000000000000000e+00 0.0000000000000000e+00 0.0000000000000000e+00 0.0000000000000000e+00  -1.7326904590014883e+03 -2.6568376638455993e+03 0.0000000000000000e+00 -2.6568376638455993e+03 3.5110024778522015e+03 0.0000000000000000e+00 0.0000000000000000e+00 0.0000000000000000e+00 0.0000000000000000e+00  -1.7843382714394813e+03 -2.3751785154700001e+03 0.0000000000000000e+00 -2.3751785154700001e+03 3.4786276379989590e+03 0.0000000000000000e+00 0.0000000000000000e+00 0.0000000000000000e+00 0.0000000000000000e+00  -1.1483681293439054e+03 -3.9599281438931541e+02 0.0000000000000000e+00 -3.9599281438931541e+02 9.7163782433075939e+03 0.0000000000000000e+00 0.0000000000000000e+00 0.0000000000000000e+00 0.0000000000000000e+00  -9.6655726965533074e+02 -1.5666506752894661e+03 0.0000000000000000e+00 -1.5666506752894661e+03 9.5859696147480172e+03 0.0000000000000000e+00 0.0000000000000000e+00 0.0000000000000000e+00 0.0000000000000000e+00  -5.2414006440250205e+03 8.1337703931032070e+02 0.0000000000000000e+00 8.1337703931032070e+02 4.9844238625069156e+03 0.0000000000000000e+00 0.0000000000000000e+00 0.0000000000000000e+00 0.0000000000000000e+00  -3.4984976533500385e+03 1.4506531876482059e+03 0.0000000000000000e+00 1.4506531876482059e+03 5.8601083258510098e+03 0.0000000000000000e+00 0.0000000000000000e+00 0.0000000000000000e+00 0.0000000000000000e+00  -3.3992579494370948e+03 1.9618436310135310e+03 0.0000000000000000e+00 1.9618436310135310e+03 1.0191779942711821e+04 0.0000000000000000e+00 0.0000000000000000e+00 0.0000000000000000e+00 0.0000000000000000e+00  -2.0908427300110350e+02 -8.6219168424369354e+02 0.0000000000000000e+00 -8.6219168424369377e+02 1.0982166965325352e+04 0.0000000000000000e+00 0.0000000000000000e+00 0.0000000000000000e+00 0.0000000000000000e+00  -1.4338354034882168e+03 6.1995279366223294e+03 0.0000000000000000e+00 6.1995279366223294e+03 5.7052383102046442e+03 0.0000000000000000e+00 0.0000000000000000e+00 0.0000000000000000e+00 0.0000000000000000e+00  4.8237936542931211e+03 8.5408925688930594e+03 0.0000000000000000e+00 8.5408925688930594e+03 8.2502706216105744e+03 0.0000000000000000e+00 0.0000000000000000e+00 0.0000000000000000e+00 0.0000000000000000e+00  1.1823431790399786e+03 1.8708082482935815e+03 0.0000000000000000e+00 1.8708082482935815e+03 1.8280042008321968e+03 0.0000000000000000e+00 0.0000000000000000e+00 0.0000000000000000e+00 0.0000000000000000e+00  2.3657243062665775e+03 3.0012807265399206e+03 0.0000000000000000e+00 3.0012807265399206e+03 5.7970882139211490e+03 0.0000000000000000e+00 0.0000000000000000e+00 0.0000000000000000e+00 0.0000000000000000e+00  7.5605932048341065e+03 -1.0793291953012676e+03 0.0000000000000000e+00 -1.0793291953012676e+03 2.1380692989388470e+02 0.0000000000000000e+00 0.0000000000000000e+00 0.0000000000000000e+00 0.0000000000000000e+00  4.1765549304515162e+03 -1.7953964434147301e+03 0.0000000000000000e+00 -1.7953964434147301e+03 -1.0033229012760851e+03 0.0000000000000000e+00 0.0000000000000000e+00 0.0000000000000000e+00 0.0000000000000000e+00  6.7771943358149529e+03 -3.5970930627889657e+03 0.0000000000000000e+00 -3.5970930627889657e+03 -1.3268182209231404e+02 0.0000000000000000e+00 0.0000000000000000e+00 0.0000000000000000e+00 0.0000000000000000e+00  2.8553721910537197e+03 -9.5395914133978044e+02 0.0000000000000000e+00 -9.5395914133978044e+02 -3.8098168662989127e+02 0.0000000000000000e+00 0.0000000000000000e+00 0.0000000000000000e+00 0.0000000000000000e+00  1.2355703719449746e+03 -1.6936187125791264e+03 0.0000000000000000e+00 -1.6936187125791264e+03 -2.1149908124775457e+03 0.0000000000000000e+00 0.0000000000000000e+00 0.0000000000000000e+00 0.0000000000000000e+00  -1.5133690558212725e+03 -2.6573682834809051e+03 0.0000000000000000e+00 -2.6573682834809051e+03 -3.6176012897136784e+03 0.0000000000000000e+00 0.0000000000000000e+00 0.0000000000000000e+00 0.0000000000000000e+00  3.9893235385703377e+02 -3.6972822364026906e+03 0.0000000000000000e+00 -3.6972822364026906e+03 2.7341091853528940e+01 0.0000000000000000e+00 0.0000000000000000e+00 0.0000000000000000e+00 0.0000000000000000e+00  -6.5449077343190424e+02 -3.0706831462306395e+03 0.0000000000000000e+00 -3.0706831462306395e+03 -7.7419937919407516e+02 0.0000000000000000e+00 0.0000000000000000e+00 0.0000000000000000e+00 0.0000000000000000e+00  -1.2440594485363208e+03 -8.2621101540702045e+02 0.0000000000000000e+00 -8.2621101540702045e+02 -5.8454968061551826e+03 0.0000000000000000e+00 0.0000000000000000e+00 0.0000000000000000e+00 0.0000000000000000e+00  -3.1054967096034993e+03 -2.7324193415706500e+03 0.0000000000000000e+00 -2.7324193415706509e+03 -7.4436884640085545e+03 0.0000000000000000e+00 0.0000000000000000e+00 0.0000000000000000e+00 0.0000000000000000e+00  -3.0649579594266934e+03 -2.6471143082647286e+03 0.0000000000000000e+00 -2.6471143082647286e+03 -6.0653039040261422e+02 0.0000000000000000e+00 0.0000000000000000e+00 0.0000000000000000e+00 0.0000000000000000e+00  -2.2649156891957773e+03 -3.0002060485258648e+03 0.0000000000000000e+00 -3.0002060485258648e+03 -8.4921708362143283e+02 0.0000000000000000e+00 0.0000000000000000e+00 0.0000000000000000e+00 0.0000000000000000e+00  -7.9548726869774127e+03 -1.2231004146143069e+02 0.0000000000000000e+00 -1.2231004146143059e+02 -8.4802962486854904e+03 0.0000000000000000e+00 0.0000000000000000e+00 0.0000000000000000e+00 0.0000000000000000e+00  -7.8559063186858839e+03 -2.7388322283097123e+03 0.0000000000000000e+00 -2.7388322283097118e+03 -9.5823275170207726e+03 0.0000000000000000e+00 0.0000000000000000e+00 0.0000000000000000e+00 0.0000000000000000e+00  -9.9285738351054406e+03 5.5091812387535640e+02 0.0000000000000000e+00 5.5091812387535629e+02 6.0293919066339754e+02 0.0000000000000000e+00 0.0000000000000000e+00 0.0000000000000000e+00 0.0000000000000000e+00  -6.8964143456932115e+03 -2.0035385727028345e+03 0.0000000000000000e+00 -2.0035385727028345e+03 4.4799399420475305e+02 0.0000000000000000e+00 0.0000000000000000e+00 0.0000000000000000e+00 0.0000000000000000e+00  -1.2951928119668915e+04 -1.5176355362774027e+03 0.0000000000000000e+00 -1.5176355362774027e+03 -9.8805474911959664e+03 0.0000000000000000e+00 0.0000000000000000e+00 0.0000000000000000e+00 0.0000000000000000e+00  -2.6613817207498828e+03 2.2842513720893062e+03 0.0000000000000000e+00 2.2842513720893066e+03 -8.4552614964906934e+03 0.0000000000000000e+00 0.0000000000000000e+00 0.0000000000000000e+00 0.0000000000000000e+00  -8.0547164267524249e+03 9.9532358063508054e+03 0.0000000000000000e+00 9.9532358063508018e+03 9.7705573679466252e+03 0.0000000000000000e+00 0.0000000000000000e+00 0.0000000000000000e+00 0.0000000000000000e+00  -6.5259314405571522e+03 1.6848926771112647e+03 0.0000000000000000e+00 1.6848926771112656e+03 9.6186519562910435e+03 0.0000000000000000e+00 0.0000000000000000e+00 0.0000000000000000e+00 0.0000000000000000e+00  8.1717197909393972e+03 7.3919993980125173e+02 0.0000000000000000e+00 7.3919993980125173e+02 -1.2810445479971312e+02 0.0000000000000000e+00 0.0000000000000000e+00 0.0000000000000000e+00 0.0000000000000000e+00  4.0906984741275414e+03 1.3222136060560110e+03 0.0000000000000000e+00 1.3222136060560110e+03 -7.2655766956996933e+02 0.0000000000000000e+00 0.0000000000000000e+00 0.0000000000000000e+00 0.0000000000000000e+00  1.0228496332698098e+04 -2.6145160783569117e+03 0.0000000000000000e+00 -2.6145160783569117e+03 -1.4921920126568682e+03 0.0000000000000000e+00 0.0000000000000000e+00 0.0000000000000000e+00 0.0000000000000000e+00  6.7512126076477944e+03 5.6182780527686226e+01 0.0000000000000000e+00 5.6182780527686226e+01 -1.1609596487995577e+03 0.0000000000000000e+00 0.0000000000000000e+00 0.0000000000000000e+00 0.0000000000000000e+00  -1.7955051249657342e+03 4.2881094140180448e+03 0.0000000000000000e+00 4.2881094140180448e+03 -6.6231823363309513e+03 0.0000000000000000e+00 0.0000000000000000e+00 0.0000000000000000e+00 0.0000000000000000e+00  -2.2257088751260076e+03 3.4389933051738635e+03 0.0000000000000000e+00 3.4389933051738635e+03 -6.2013957950954773e+03 0.0000000000000000e+00 0.0000000000000000e+00 0.0000000000000000e+00 0.0000000000000000e+00  -8.7099716404642095e+02 -6.3122813839764763e+02 0.0000000000000000e+00 -6.3122813839764763e+02 -5.2532640742445592e+03 0.0000000000000000e+00 0.0000000000000000e+00 0.0000000000000000e+00 0.0000000000000000e+00  8.6416520765968119e+02 -7.1355243663541872e+00 0.0000000000000000e+00 -7.1355243663541872e+00 -5.0769475189942468e+03 0.0000000000000000e+00 0.0000000000000000e+00 0.0000000000000000e+00 0.0000000000000000e+00  -8.1524021027133745e+02 7.2197791519058583e+03 0.0000000000000000e+00 7.2197791519058583e+03 -1.5929646303736745e+04 0.0000000000000000e+00 0.0000000000000000e+00 0.0000000000000000e+00 0.0000000000000000e+00  -1.6481525079575097e+03 4.6996371151072553e+03 0.0000000000000000e+00 4.6996371151072553e+03 -1.5696542117863039e+04 0.0000000000000000e+00 0.0000000000000000e+00 0.0000000000000000e+00 0.0000000000000000e+00  -2.6883520764069121e+03 1.9228678799410071e+02 0.0000000000000000e+00 1.9228678799410059e+02 -1.1897783538140588e+04 0.0000000000000000e+00 0.0000000000000000e+00 0.0000000000000000e+00 0.0000000000000000e+00  3.9871851105102064e+02 7.0191164350951112e+02 0.0000000000000000e+00 7.0191164350951101e+02 -1.1720366451299109e+04 0.0000000000000000e+00 0.0000000000000000e+00 0.0000000000000000e+00 0.0000000000000000e+00  -3.4374356596605739e+03 8.3704910212360573e+03 0.0000000000000000e+00 8.3704910212360573e+03 -2.8075422280477065e+04 0.0000000000000000e+00 0.0000000000000000e+00 0.0000000000000000e+00 0.0000000000000000e+00  -5.8527567948368760e+03 2.9402149175000900e+03 0.0000000000000000e+00 2.9402149175000905e+03 -2.9698393356798188e+04 0.0000000000000000e+00 0.0000000000000000e+00 0.0000000000000000e+00 0.0000000000000000e+00  -8.8869372597831371e+03 -5.6898759043273958e+02 0.0000000000000000e+00 -5.6898759043273969e+02 -1.9672784848889260e+04 0.0000000000000000e+00 0.0000000000000000e+00 0.0000000000000000e+00 0.0000000000000000e+00  -3.6208683631818253e+03 -3.2479828030053568e+02 0.0000000000000000e+00 -3.2479828030053574e+02 -1.8420680660500184e+04 0.0000000000000000e+00 0.0000000000000000e+00 0.0000000000000000e+00 0.0000000000000000e+00  -3.7434634292825947e+04 1.1555024625021606e+04 0.0000000000000000e+00 1.1555024625021606e+04 -4.1582005750821831e+04 0.0000000000000000e+00 0.0000000000000000e+00 0.0000000000000000e+00 0.0000000000000000e+00  -2.2967636167877354e+04 9.6979672301546016e+03 0.0000000000000000e+00 9.6979672301546016e+03 -4.2101653101755692e+04 0.0000000000000000e+00 0.0000000000000000e+00 0.0000000000000000e+00 0.0000000000000000e+00  -2.9387154237158229e+04 1.0419386602557963e+04 0.0000000000000000e+00 1.0419386602557963e+04 -2.7046776296974796e+04 0.0000000000000000e+00 0.0000000000000000e+00 0.0000000000000000e+00 0.0000000000000000e+00  -1.3479474695486268e+04 3.2299513430235146e+02 0.0000000000000000e+00 3.2299513430235169e+02 -2.4565457471374368e+04 0.0000000000000000e+00 0.0000000000000000e+00 0.0000000000000000e+00 0.0000000000000000e+00  -2.6202782867168385e+03 5.0212539647210187e+03 0.0000000000000000e+00 5.0212539647210187e+03 -2.0823169393017017e+02 0.0000000000000000e+00 0.0000000000000000e+00 0.0000000000000000e+00 0.0000000000000000e+00  -2.6933824045647939e+03 5.3576440343745635e+03 0.0000000000000000e+00 5.3576440343745635e+03 8.2108092512209157e+02 0.0000000000000000e+00 0.0000000000000000e+00 0.0000000000000000e+00 0.0000000000000000e+00  1.5111255162918255e+03 1.9605376519600109e+03 0.0000000000000000e+00 1.9605376519600109e+03 -2.4885488943949417e+03 0.0000000000000000e+00 0.0000000000000000e+00 0.0000000000000000e+00 0.0000000000000000e+00  6.2242675115977545e+03 2.5664396905186932e+03 0.0000000000000000e+00 2.5664396905186932e+03 -1.2697875130883385e+03 0.0000000000000000e+00 0.0000000000000000e+00 0.0000000000000000e+00 0.0000000000000000e+00  -1.1157610701513198e+04 1.3310726446084476e+04 0.0000000000000000e+00 1.3310726446084476e+04 -8.6454099359922893e+03 0.0000000000000000e+00 0.0000000000000000e+00 0.0000000000000000e+00 0.0000000000000000e+00  -4.9558304275519749e+03 1.1891144186032179e+04 0.0000000000000000e+00 1.1891144186032179e+04 -5.9353060597375334e+03 0.0000000000000000e+00 0.0000000000000000e+00 0.0000000000000000e+00 0.0000000000000000e+00  -8.6352178616572673e+03 8.5225666899379175e+03 0.0000000000000000e+00 8.5225666899379175e+03 -1.0703374955454989e+04 0.0000000000000000e+00 0.0000000000000000e+00 0.0000000000000000e+00 0.0000000000000000e+00  5.2444105210012333e+02 6.5675546112570819e+03 0.0000000000000000e+00 6.5675546112570819e+03 -6.3372254727738464e+03 0.0000000000000000e+00 0.0000000000000000e+00 0.0000000000000000e+00 0.0000000000000000e+00  -8.0321755340921300e+03 1.9954148575112325e+04 0.0000000000000000e+00 1.9954148575112325e+04 -1.9680060233981341e+04 0.0000000000000000e+00 0.0000000000000000e+00 0.0000000000000000e+00 0.0000000000000000e+00  -4.2149748716621212e+02 1.7179851735512246e+04 0.0000000000000000e+00 1.7179851735512246e+04 -1.7637277130123039e+04 0.0000000000000000e+00 0.0000000000000000e+00 0.0000000000000000e+00 0.0000000000000000e+00  -6.4046854281770211e+03 1.1675724632877260e+04 0.0000000000000000e+00 1.1675724632877260e+04 -2.2780632450331213e+04 0.0000000000000000e+00 0.0000000000000000e+00 0.0000000000000000e+00 0.0000000000000000e+00  4.7732070270869717e+03 1.0793890621231489e+04 0.0000000000000000e+00 1.0793890621231489e+04 -1.6969417051939461e+04 0.0000000000000000e+00 0.0000000000000000e+00 0.0000000000000000e+00 0.0000000000000000e+00  -1.0213427820880228e+04 2.7324435313325059e+04 0.0000000000000000e+00 2.7324435313325059e+04 -3.3845760971780473e+04 0.0000000000000000e+00 0.0000000000000000e+00 0.0000000000000000e+00 0.0000000000000000e+00  -3.6118677500085928e+03 2.0786000523114471e+04 0.0000000000000000e+00 2.0786000523114471e+04 -3.1249950407775876e+04 0.0000000000000000e+00 0.0000000000000000e+00 0.0000000000000000e+00 0.0000000000000000e+00  -9.6065574381420556e+03 1.2897361176451681e+04 0.0000000000000000e+00 1.2897361176451681e+04 -3.9802118926334420e+04 0.0000000000000000e+00 0.0000000000000000e+00 0.0000000000000000e+00 0.0000000000000000e+00  5.7381141740834328e+03 1.2955510220419783e+04 0.0000000000000000e+00 1.2955510220419783e+04 -3.3426169372394332e+04 0.0000000000000000e+00 0.0000000000000000e+00 0.0000000000000000e+00 0.0000000000000000e+00  -6.3538754307313371e+04 4.7379870642851529e+04 0.0000000000000000e+00 4.7379870642851529e+04 -5.4440319402649337e+04 0.0000000000000000e+00 0.0000000000000000e+00 0.0000000000000000e+00 0.0000000000000000e+00  -4.9988254683600237e+04 3.0109316042346934e+04 0.0000000000000000e+00 3.0109316042346934e+04 -5.2586152419786937e+04 0.0000000000000000e+00 0.0000000000000000e+00 0.0000000000000000e+00 0.0000000000000000e+00  -5.1288149309995315e+04 2.1298738438797394e+04 0.0000000000000000e+00 2.1298738438797394e+04 -6.4309931885423743e+04 0.0000000000000000e+00 0.0000000000000000e+00 0.0000000000000000e+00 0.0000000000000000e+00  -1.5954526957613405e+04 1.1794137636060212e+04 0.0000000000000000e+00 1.1794137636060212e+04 -6.0086349888606150e+04 0.0000000000000000e+00 0.0000000000000000e+00 0.0000000000000000e+00 0.0000000000000000e+00  -2.8915853443784006e+04 9.5538299885965171e+03 0.0000000000000000e+00 9.5538299885965171e+03 -2.2506567371763828e+02 0.0000000000000000e+00 0.0000000000000000e+00 0.0000000000000000e+00 0.0000000000000000e+00  -1.8450459750095393e+04 7.4958974851792973e+03 0.0000000000000000e+00 7.4958974851792973e+03 2.5876597728655861e+03 0.0000000000000000e+00 0.0000000000000000e+00 0.0000000000000000e+00 0.0000000000000000e+00  -1.7612438202577785e+04 8.4216165823293632e+03 0.0000000000000000e+00 8.4216165823293632e+03 -3.0541279190982191e+03 0.0000000000000000e+00 0.0000000000000000e+00 0.0000000000000000e+00 0.0000000000000000e+00  -4.9781446407371186e+03 3.7283649854222954e+03 0.0000000000000000e+00 3.7283649854222954e+03 -4.8296623299386857e+02 0.0000000000000000e+00 0.0000000000000000e+00 0.0000000000000000e+00 0.0000000000000000e+00  -3.1160658954662649e+04 2.1706352522634854e+04 0.0000000000000000e+00 2.1706352522634854e+04 -7.5159997326951452e+03 0.0000000000000000e+00 0.0000000000000000e+00 0.0000000000000000e+00 0.0000000000000000e+00  -1.4080673064691671e+04 1.8796842644139044e+04 0.0000000000000000e+00 1.8796842644139044e+04 -9.9376478399380790e+02 0.0000000000000000e+00 0.0000000000000000e+00 0.0000000000000000e+00 0.0000000000000000e+00  -2.3453988585195817e+04 1.8677893672378337e+04 0.0000000000000000e+00 1.8677893672378337e+04 -9.8722866421495037e+03 0.0000000000000000e+00 0.0000000000000000e+00 0.0000000000000000e+00 0.0000000000000000e+00  -5.6607742554744009e+03 1.3892317582129019e+04 0.0000000000000000e+00 1.3892317582129019e+04 -3.5266911582242628e+03 0.0000000000000000e+00 0.0000000000000000e+00 0.0000000000000000e+00 0.0000000000000000e+00  -2.3666167649849387e+04 2.9621461776834520e+04 0.0000000000000000e+00 2.9621461776834520e+04 -1.4859890608137121e+04 0.0000000000000000e+00 0.0000000000000000e+00 0.0000000000000000e+00 0.0000000000000000e+00  -6.0579888251157199e+03 2.5778715439312778e+04 0.0000000000000000e+00 2.5778715439312778e+04 -6.5792258286927126e+03 0.0000000000000000e+00 0.0000000000000000e+00 0.0000000000000000e+00 0.0000000000000000e+00  -1.7871553368178276e+04 2.5432882856096312e+04 0.0000000000000000e+00 2.5432882856096312e+04 -1.9758321596994421e+04 0.0000000000000000e+00 0.0000000000000000e+00 0.0000000000000000e+00 0.0000000000000000e+00  9.9276376597908859e+02 2.1350994887687757e+04 0.0000000000000000e+00 2.1350994887687757e+04 -1.2426057803438827e+04 0.0000000000000000e+00 0.0000000000000000e+00 0.0000000000000000e+00 0.0000000000000000e+00  -2.7917926466570960e+04 3.5584604463819902e+04 0.0000000000000000e+00 3.5584604463819902e+04 -1.9238923751714490e+04 0.0000000000000000e+00 0.0000000000000000e+00 0.0000000000000000e+00 0.0000000000000000e+00  -5.5356680145716782e+03 2.8185003877792744e+04 0.0000000000000000e+00 2.8185003877792744e+04 -8.9183470954102377e+03 0.0000000000000000e+00 0.0000000000000000e+00 0.0000000000000000e+00 0.0000000000000000e+00  -2.2354568217811619e+04 3.2765348877916429e+04 0.0000000000000000e+00 3.2765348877916429e+04 -3.1423716613710127e+04 0.0000000000000000e