<?xml version="1.0"?>
<VTKFile type="UnstructuredGrid"  version="0.1"  >
<UnstructuredGrid>
<Piece  NumberOfPoints="1617" NumberOfCells="3051">
<Points>
<DataArray  type="Float64"  NumberOfComponents="3"  format="ascii">1.925 0.4625 0  1.925 0.4375 0  1.975 0.4375 0  1.975 0.4625 0  1.925 0.3625 0  1.925 0.3375 0  1.975 0.3375 0  1.975 0.3625 0  1.925 0.2625 0  1.925 0.2375 0  1.975 0.2375 0  1.975 0.2625 0  1.925 0.1625 0  1.925 0.1375 0  1.975 0.1375 0  1.975 0.1625 0  1.925 0.0625 0  1.925 0.03750000000000001 0  1.975 0.03750000000000001 0  1.975 0.0625 0  1.825 0.4625 0  1.825 0.4375 0  1.875 0.4375 0  1.875 0.4625 0  1.825 0.3625 0  1.825 0.3375 0  1.875 0.3375 0  1.875 0.3625 0  1.825 0.2625 0  1.825 0.2375 0  1.875 0.2375 0  1.875 0.2625 0  1.825 0.1625 0  1.825 0.1375 0  1.875 0.1375 0  1.875 0.1625 0  1.825 0.0625 0  1.825 0.03750000000000001 0  1.875 0.03750000000000001 0  1.875 0.0625 0  1.725 0.4625 0  1.725 0.4375 0  1.775 0.4375 0  1.775 0.4625 0  1.725 0.3625 0  1.725 0.3375 0  1.775 0.3375 0  1.775 0.3625 0  1.725 0.2625 0  1.725 0.2375 0  1.775 0.2375 0  1.775 0.2625 0  1.725 0.1625 0  1.725 0.1375 0  1.775 0.1375 0  1.775 0.1625 0  1.725 0.0625 0  1.725 0.03750000000000001 0  1.775 0.03750000000000001 0  1.775 0.0625 0  1.625 0.4625 0  1.625 0.4375 0  1.675 0.4375 0  1.675 0.4625 0  1.625 0.3625 0  1.625 0.3375 0  1.675 0.3375 0  1.675 0.3625 0  1.625 0.2625 0  1.625 0.2375 0  1.675 0.2375 0  1.675 0.2625 0  1.625 0.1625 0  1.625 0.1375 0  1.675 0.1375 0  1.675 0.1625 0  1.625 0.0625 0  1.625 0.03750000000000001 0  1.675 0.03750000000000001 0  1.675 0.0625 0  1.525 0.4625 0  1.525 0.4375 0  1.575 0.4375 0  1.575 0.4625 0  1.525 0.3625 0  1.525 0.3375 0  1.575 0.3375 0  1.575 0.3625 0  1.525 0.2625 0  1.525 0.2375 0  1.575 0.2375 0  1.575 0.2625 0  1.525 0.1625 0  1.525 0.1375 0  1.575 0.1375 0  1.575 0.1625 0  1.525 0.0625 0  1.525 0.03750000000000001 0  1.575 0.03750000000000001 0  1.575 0.0625 0  1.425 0.4625 0  1.425 0.4375 0  1.475 0.4375 0  1.475 0.4625 0  1.425 0.3625 0  1.425 0.3375 0  1.475 0.3375 0  1.475 0.3625 0  1.425 0.2625 0  1.425 0.2375 0  1.475 0.2375 0  1.475 0.2625 0  1.425 0.1625 0  1.425 0.1375 0  1.475 0.1375 0  1.475 0.1625 0  1.425 0.0625 0  1.425 0.03750000000000001 0  1.475 0.03750000000000001 0  1.475 0.0625 0  1.325 0.4625 0  1.325 0.4375 0  1.375 0.4375 0  1.375 0.4625 0  1.325 0.3625 0  1.325 0.3375 0  1.375 0.3375 0  1.375 0.3625 0  1.325 0.2625 0  1.325 0.2375 0  1.375 0.2375 0  1.375 0.2625 0  1.325 0.1625 0  1.325 0.1375 0  1.375 0.1375 0  1.375 0.1625 0  1.325 0.0625 0  1.325 0.03750000000000001 0  1.375 0.03750000000000001 0  1.375 0.0625 0  1.225 0.4625 0  1.225 0.4375 0  1.275 0.4375 0  1.275 0.4625 0  1.225 0.3625 0  1.225 0.3375 0  1.275 0.3375 0  1.275 0.3625 0  1.225 0.2625 0  1.225 0.2375 0  1.275 0.2375 0  1.275 0.2625 0  1.225 0.1625 0  1.225 0.1375 0  1.275 0.1375 0  1.275 0.1625 0  1.225 0.0625 0  1.225 0.03750000000000001 0  1.275 0.03750000000000001 0  1.275 0.0625 0  1.125 0.4625 0  1.125 0.4375 0  1.175 0.4375 0  1.175 0.4625 0  1.125 0.3625 0  1.125 0.3375 0  1.175 0.3375 0  1.175 0.3625 0  1.125 0.2625 0  1.125 0.2375 0  1.175 0.2375 0  1.175 0.2625 0  1.125 0.1625 0  1.125 0.1375 0  1.175 0.1375 0  1.175 0.1625 0  1.125 0.0625 0  1.125 0.03750000000000001 0  1.175 0.03750000000000001 0  1.175 0.0625 0  1.025 0.4625 0  1.025 0.4375 0  1.075 0.4375 0  1.075 0.4625 0  1.025 0.3625 0  1.025 0.3375 0  1.075 0.3375 0  1.075 0.3625 0  1.025 0.2625 0  1.025 0.2375 0  1.075 0.2375 0  1.075 0.2625 0  1.025 0.1625 0  1.025 0.1375 0  1.075 0.1375 0  1.075 0.1625 0  1.025 0.0625 0  1.025 0.03750000000000001 0  1.075 0.03750000000000001 0  1.075 0.0625 0  0.9249999999999999 0.4625 0  0.9249999999999999 0.4375 0  0.975 0.4375 0  0.975 0.4625 0  0.9249999999999999 0.3625 0  0.9249999999999999 0.3375 0  0.975 0.3375 0  0.975 0.3625 0  0.9249999999999999 0.2625 0  0.9249999999999999 0.2375 0  0.975 0.2375 0  0.975 0.2625 0  0.9249999999999999 0.1625 0  0.9249999999999999 0.1375 0  0.975 0.1375 0  0.975 0.1625 0  0.9249999999999999 0.0625 0  0.9249999999999999 0.03750000000000001 0  0.975 0.03750000000000001 0  0.975 0.0625 0  0.825 0.4625 0  0.825 0.4375 0  0.875 0.4375 0  0.875 0.4625 0  0.825 0.3625 0  0.825 0.3375 0  0.875 0.3375 0  0.875 0.3625 0  0.825 0.2625 0  0.825 0.2375 0  0.875 0.2375 0  0.875 0.2625 0  0.825 0.1625 0  0.825 0.1375 0  0.875 0.1375 0  0.875 0.1625 0  0.825 0.0625 0  0.825 0.03750000000000001 0  0.875 0.03750000000000001 0  0.875 0.0625 0  0.725 0.4625 0  0.725 0.4375 0  0.775 0.4375 0  0.775 0.4625 0  0.725 0.3625 0  0.725 0.3375 0  0.775 0.3375 0  0.775 0.3625 0  0.725 0.2625 0  0.725 0.2375 0  0.775 0.2375 0  0.775 0.2625 0  0.725 0.1625 0  0.725 0.1375 0  0.775 0.1375 0  0.775 0.1625 0  0.725 0.0625 0  0.725 0.03750000000000001 0  0.775 0.03750000000000001 0  0.775 0.0625 0  0.625 0.4625 0  0.625 0.4375 0  0.675 0.4375 0  0.675 0.4625 0  0.625 0.3625 0  0.625 0.3375 0  0.675 0.3375 0  0.675 0.3625 0  0.625 0.2625 0  0.625 0.2375 0  0.675 0.2375 0  0.675 0.2625 0  0.625 0.1625 0  0.625 0.1375 0  0.675 0.1375 0  0.675 0.1625 0  0.625 0.0625 0  0.625 0.03750000000000001 0  0.675 0.03750000000000001 0  0.675 0.0625 0  0.525 0.4625 0  0.525 0.4375 0  0.5750000000000001 0.4375 0  0.5750000000000001 0.4625 0  0.525 0.3625 0  0.525 0.3375 0  0.5750000000000001 0.3375 0  0.5750000000000001 0.3625 0  0.525 0.2625 0  0.525 0.2375 0  0.5750000000000001 0.2375 0  0.5750000000000001 0.2625 0  0.525 0.1625 0  0.525 0.1375 0  0.5750000000000001 0.1375 0  0.5750000000000001 0.1625 0  0.525 0.0625 0  0.525 0.03750000000000001 0  0.5750000000000001 0.03750000000000001 0  0.5750000000000001 0.0625 0  0.425 0.4625 0  0.425 0.4375 0  0.475 0.4375 0  0.475 0.4625 0  0.425 0.3625 0  0.425 0.3375 0  0.475 0.3375 0  0.475 0.3625 0  0.425 0.2625 0  0.425 0.2375 0  0.475 0.2375 0  0.475 0.2625 0  0.425 0.1625 0  0.425 0.1375 0  0.475 0.1375 0  0.475 0.1625 0  0.425 0.0625 0  0.425 0.03750000000000001 0  0.475 0.03750000000000001 0  0.475 0.0625 0  0.325 0.4625 0  0.325 0.4375 0  0.375 0.4375 0  0.375 0.4625 0  0.325 0.3625 0  0.325 0.3375 0  0.375 0.3375 0  0.375 0.3625 0  0.325 0.2625 0  0.325 0.2375 0  0.375 0.2375 0  0.375 0.2625 0  0.325 0.1625 0  0.325 0.1375 0  0.375 0.1375 0  0.375 0.1625 0  0.325 0.0625 0  0.325 0.03750000000000001 0  0.375 0.03750000000000001 0  0.375 0.0625 0  0.225 0.4625 0  0.225 0.4375 0  0.275 0.4375 0  0.275 0.4625 0  0.225 0.3625 0  0.225 0.3375 0  0.275 0.3375 0  0.275 0.3625 0  0.225 0.2625 0  0.225 0.2375 0  0.275 0.2375 0  0.275 0.2625 0  0.225 0.1625 0  0.225 0.1375 0  0.275 0.1375 0  0.275 0.1625 0  0.225 0.0625 0  0.225 0.03750000000000001 0  0.275 0.03750000000000001 0  0.275 0.0625 0  0.125 0.4625 0  0.125 0.4375 0  0.175 0.4375 0  0.175 0.4625 0  0.125 0.3625 0  0.125 0.3375 0  0.175 0.3375 0  0.175 0.3625 0  0.125 0.2625 0  0.125 0.2375 0  0.175 0.2375 0  0.175 0.2625 0  0.125 0.1625 0  0.125 0.1375 0  0.175 0.1375 0  0.175 0.1625 0  0.125 0.0625 0  0.125 0.03750000000000001 0  0.175 0.03750000000000001 0  0.175 0.0625 0  0.025 0.4625 0  0.025 0.4375 0  0.07500000000000001 0.4375 0  0.07500000000000001 0.4625 0  0.025 0.3625 0  0.025 0.3375 0  0.07500000000000001 0.3375 0  0.07500000000000001 0.3625 0  0.025 0.2625 0  0.025 0.2375 0  0.07500000000000001 0.2375 0  0.07500000000000001 0.2625 0  0.025 0.1625 0  0.025 0.1375 0  0.07500000000000001 0.1375 0  0.07500000000000001 0.1625 0  0.025 0.0625 0  0.025 0.03750000000000001 0  0.07500000000000001 0.03750000000000001 0  0.07500000000000001 0.0625 0  1.65 -0.05 0  1.65 -0.1 0  1.95 -0.1 0  1.95 -0.05 0  1.964644660940673 -0.01464466094067262 0  2 0 0  2 0.5 0  1.2 0.5 0  1.164644660940673 0.5146446609406726 0  1.15 0.5499999999999999 0  1.15 0.6 0  0.85 0.6 0  0.85 0.55 0  0.8353553390593274 0.5146446609406726 0  0.8 0.5 0  1 0.5 0  0 0.5 0  0 0 0  0.03535533905932739 -0.01464466094067263 0  0.04999999999999999 -0.05 0  0.04999999999999999 -0.1 0  0.35 -0.1 0  0.35 -0.05 0  0.3646446609406727 -0.01464466094067262 0  0.4 0 0  1.6 0 0  1.635355339059327 -0.01464466094067263 0  2 0.25 0  1.8 -0.1 0  0.8765366864730179 0.5 0  0.2 -0.1 0  0 0.25 0  0.4 0.5 0  1 0.6 0  1.6 0.5 0  1 0 0  2 0.375 0  2 0.125 0  0.9382683432365089 0.5 0  0.838268343236509 0.5 0  0 0.125 0  0 0.375 0  0.6000000000000001 0.5 0  0.2 0.5 0  1.4 0.5 0  1.8 0.5 0  1.3 0 0  0.7 0 0  2 0.4375 0  2 0.3125 0  2 0.0625 0  2 0.1875 0  0 0.0625 0  0 0.1875 0  0 0.4375 0  0 0.3125 0  0.7000000000000001 0.5 0  0.5 0.5 0  0.1 0.5 0  0.3 0.5 0  1.3 0.5 0  1.5 0.5 0  1.9 0.5 0  1.7 0.5 0  1.45 0 0  1.15 0 0  0.55 0 0  0.85 0 0  2 0.46875 0  2 0.34375 0  2 0.03125 0  2 0.15625 0  0 0.03125 0  0 0.21875 0  0 0.15625 0  0 0.46875 0  0 0.28125 0  0 0.34375 0  0.75 0.5 0  0.6500000000000001 0.5 0  0.45 0.5 0  0.55 0.5 0  0.05 0.5 0  0.15 0.5 0  0.35 0.5 0  0.25 0.5 0  1.25 0.5 0  1.35 0.5 0  1.55 0.5 0  1.45 0.5 0  1.95 0.5 0  1.85 0.5 0  1.65 0.5 0  1.75 0.5 0  1.525 0 0  1.375 0 0  1.075 0 0  1.225 0 0  0.475 0 0  0.625 0 0  0.925 0 0  0.7749999999999999 0 0  1.075 0.6 0  1.875 -0.1 0  1.725 -0.1 0  0.275 -0.1 0  0.125 -0.1 0  0.925 0.6 0  0.25 -0.03125 0  0.1625 -0.03579545454545455 0  1.85 -0.03125 0  1.7625 -0.03579545454545455 0  1.0625 0.53125 0  0.9691341716182544 0.55 0  1.7 -0.0169642857142857 0  0.1033366890997352 -0.01982430494263018 0  0.9057886815224064 0.5475669777163904 0  1.112036335279094 0.5134989411628127 0  1.897713414634147 -0.05282012195121953 0  0.2977134146341464 -0.0528201219512195 0  1.804960892236385 -0.008707402823132791 0  0.2049608922363847 -0.008707402823132832 0  1.01665752126518 0.5448099574696401 0  1.917339046654921 -0.009467383746031326 0  0.3173390466549212 -0.009467383746031351 0  1.103055247562616 0.5608328713439231 0  1.804272303748862 -0.05445107198578146 0  0.2042723037488618 -0.05445107198578146 0  1.3 0.4 0  1.8 0.4 0  1.7 0.4 0  1.5 0.4 0  1.2 0.4 0  1.6875 -0.1 0  1.8 0.2 0  1.8 0.09999999999999999 0  1.7 0.2 0  1.7 0.09999999999999999 0  1.5 0.2 0  1.5 0.0999999999
[...]
<PointData  Tensors="f_225"> 
<DataArray  type="Float64"  Name="f_225"  NumberOfComponents="9" format="ascii">3.3080788588751807e+03 -2.1936124251107813e+03 0.0000000000000000e+00 -2.1936124251107813e+03 8.5560874646014406e+02 0.0000000000000000e+00 0.0000000000000000e+00 0.0000000000000000e+00 0.0000000000000000e+00  2.0305256901858352e+03 -3.4637503125091416e+03 0.0000000000000000e+00 -3.4637503125091416e+03 5.1903176149215494e+02 0.0000000000000000e+00 0.0000000000000000e+00 0.0000000000000000e+00 0.0000000000000000e+00  6.5398074358293741e+02 -1.6052543541728753e+03 0.0000000000000000e+00 -1.6052543541728753e+03 2.3791636961410895e+03 0.0000000000000000e+00 0.0000000000000000e+00 0.0000000000000000e+00 0.0000000000000000e+00  2.5339954369724026e+02 -2.0452992817879340e+02 0.0000000000000000e+00 -2.0452992817879340e+02 4.5115972043755085e+02 0.0000000000000000e+00 0.0000000000000000e+00 0.0000000000000000e+00 0.0000000000000000e+00  1.7725399776315021e+03 -6.2655897095683777e+03 0.0000000000000000e+00 -6.2655897095683777e+03 4.6217233475193843e+03 0.0000000000000000e+00 0.0000000000000000e+00 0.0000000000000000e+00 0.0000000000000000e+00  -8.2986943989404347e+02 -5.1832687161208341e+03 0.0000000000000000e+00 -5.1832687161208341e+03 3.1013465661783384e+03 0.0000000000000000e+00 0.0000000000000000e+00 0.0000000000000000e+00 0.0000000000000000e+00  7.2528967985574286e+02 -3.0007554211461306e+03 0.0000000000000000e+00 -3.0007554211461306e+03 1.0432015079273631e+04 0.0000000000000000e+00 0.0000000000000000e+00 0.0000000000000000e+00 0.0000000000000000e+00  -1.1269988360405343e+03 -1.8259176805448242e+03 0.0000000000000000e+00 -1.8259176805448242e+03 7.9445270358258676e+03 0.0000000000000000e+00 0.0000000000000000e+00 0.0000000000000000e+00 0.0000000000000000e+00  1.0986142829902703e+03 -6.5504735781315330e+03 0.0000000000000000e+00 -6.5504735781315330e+03 7.4147881556135126e+03 0.0000000000000000e+00 0.0000000000000000e+00 0.0000000000000000e+00 0.0000000000000000e+00  -2.3092245722375469e+03 -4.7389740019595274e+03 0.0000000000000000e+00 -4.7389740019595283e+03 5.3497364664743172e+03 0.0000000000000000e+00 0.0000000000000000e+00 0.0000000000000000e+00 0.0000000000000000e+00  3.7912183285926642e+02 -2.0910862066548034e+03 0.0000000000000000e+00 -2.0910862066548034e+03 2.0240961225471379e+04 0.0000000000000000e+00 0.0000000000000000e+00 0.0000000000000000e+00 0.0000000000000000e+00  -1.0087752506111507e+03 -2.0910102239102248e+03 0.0000000000000000e+00 -2.0910102239102248e+03 1.8683940643597194e+04 0.0000000000000000e+00 0.0000000000000000e+00 0.0000000000000000e+00 0.0000000000000000e+00  -2.2750151186614676e+03 -3.5369541366447479e+03 0.0000000000000000e+00 -3.5369541366447479e+03 8.8273795959037816e+03 0.0000000000000000e+00 0.0000000000000000e+00 0.0000000000000000e+00 0.0000000000000000e+00  -4.8050286634095082e+03 -2.3596408110443994e+02 0.0000000000000000e+00 -2.3596408110443974e+02 7.3167341542066224e+03 0.0000000000000000e+00 0.0000000000000000e+00 0.0000000000000000e+00 0.0000000000000000e+00  4.2177729960612550e+02 2.5583758614697234e+02 0.0000000000000000e+00 2.5583758614697234e+02 2.7638802832900321e+04 0.0000000000000000e+00 0.0000000000000000e+00 0.0000000000000000e+00 0.0000000000000000e+00  2.7607310157842858e+02 -1.3279976125260345e+02 0.0000000000000000e+00 -1.3279976125260342e+02 2.4863957823118501e+04 0.0000000000000000e+00 0.0000000000000000e+00 0.0000000000000000e+00 0.0000000000000000e+00  -1.1158469018471988e+04 4.3907753183319828e+03 0.0000000000000000e+00 4.3907753183319828e+03 8.0187187212504232e+03 0.0000000000000000e+00 0.0000000000000000e+00 0.0000000000000000e+00 0.0000000000000000e+00  -5.5772987600517008e+03 6.2598735720720260e+03 0.0000000000000000e+00 6.2598735720720260e+03 1.1437571682185728e+04 0.0000000000000000e+00 0.0000000000000000e+00 0.0000000000000000e+00 0.0000000000000000e+00  -4.3665141299701481e+03 7.2747069467708834e+03 0.0000000000000000e+00 7.2747069467708834e+03 2.3232276454321138e+04 0.0000000000000000e+00 0.0000000000000000e+00 0.0000000000000000e+00 0.0000000000000000e+00  -6.3742832526978316e+02 4.0290297112519279e+03 0.0000000000000000e+00 4.0290297112519279e+03 2.5718531827839244e+04 0.0000000000000000e+00 0.0000000000000000e+00 0.0000000000000000e+00 0.0000000000000000e+00  1.1380572917595478e+04 -2.6547217985527545e+03 0.0000000000000000e+00 -2.6547217985527545e+03 3.3096469161087236e+02 0.0000000000000000e+00 0.0000000000000000e+00 0.0000000000000000e+00 0.0000000000000000e+00  5.7433903361678686e+03 -3.3030459924030156e+03 0.0000000000000000e+00 -3.3030459924030156e+03 -1.7027733026897349e+03 0.0000000000000000e+00 0.0000000000000000e+00 0.0000000000000000e+00 0.0000000000000000e+00  7.6437990437154267e+03 -5.3264595583977280e+03 0.0000000000000000e+00 -5.3264595583977280e+03 2.7247466115031375e+02 0.0000000000000000e+00 0.0000000000000000e+00 0.0000000000000000e+00 0.0000000000000000e+00  5.3956317408851246e+03 -2.2292968894660075e+03 0.0000000000000000e+00 -2.2292968894660075e+03 -4.7722179002912725e+02 0.0000000000000000e+00 0.0000000000000000e+00 0.0000000000000000e+00 0.0000000000000000e+00  3.6253070484572049e+03 -4.4324479994100275e+03 0.0000000000000000e+00 -4.4324479994100275e+03 -3.5661851479565389e+03 0.0000000000000000e+00 0.0000000000000000e+00 0.0000000000000000e+00 0.0000000000000000e+00  -1.1560928551307252e+03 -4.5572534699884927e+03 0.0000000000000000e+00 -4.5572534699884927e+03 -6.8808032007467809e+03 0.0000000000000000e+00 0.0000000000000000e+00 0.0000000000000000e+00 0.0000000000000000e+00  2.1911387829306782e+03 -6.9074299057729640e+03 0.0000000000000000e+00 -6.9074299057729640e+03 1.4018101704864395e+02 0.0000000000000000e+00 0.0000000000000000e+00 0.0000000000000000e+00 0.0000000000000000e+00  5.7943863314608286e+01 -5.5735347882782971e+03 0.0000000000000000e+00 -5.5735347882782971e+03 -5.5180446906588804e+02 0.0000000000000000e+00 0.0000000000000000e+00 0.0000000000000000e+00 0.0000000000000000e+00  -3.3923393215843396e+02 -3.0638952735440043e+03 0.0000000000000000e+00 -3.0638952735440043e+03 -1.0543956040879162e+04 0.0000000000000000e+00 0.0000000000000000e+00 0.0000000000000000e+00 0.0000000000000000e+00  -4.2822552520435684e+03 -4.2297297804939963e+03 0.0000000000000000e+00 -4.2297297804939963e+03 -1.3611370623305986e+04 0.0000000000000000e+00 0.0000000000000000e+00 0.0000000000000000e+00 0.0000000000000000e+00  -1.7275887594228475e+03 -5.8958885951865823e+03 0.0000000000000000e+00 -5.8958885951865841e+03 -2.0846606961596563e+03 0.0000000000000000e+00 0.0000000000000000e+00 0.0000000000000000e+00 0.0000000000000000e+00  -2.0672211845772235e+03 -5.9407033092514557e+03 0.0000000000000000e+00 -5.9407033092514566e+03 -1.7738188172800967e+03 0.0000000000000000e+00 0.0000000000000000e+00 0.0000000000000000e+00 0.0000000000000000e+00  -1.0022914361356432e+04 8.1117525999871850e+02 0.0000000000000000e+00 8.1117525999871850e+02 -1.7876571281706230e+04 0.0000000000000000e+00 0.0000000000000000e+00 0.0000000000000000e+00 0.0000000000000000e+00  -1.2152139291551230e+04 -2.2114635573297137e+03 0.0000000000000000e+00 -2.2114635573297137e+03 -2.1493115973430056e+04 0.0000000000000000e+00 0.0000000000000000e+00 0.0000000000000000e+00 0.0000000000000000e+00  -1.0613063386204727e+04 -1.1247492896663400e+03 0.0000000000000000e+00 -1.1247492896663400e+03 -5.0308056848941715e+03 0.0000000000000000e+00 0.0000000000000000e+00 0.0000000000000000e+00 0.0000000000000000e+00  -6.7166944621950170e+03 -4.2732271683460840e+03 0.0000000000000000e+00 -4.2732271683460840e+03 -2.6876951814595359e+03 0.0000000000000000e+00 0.0000000000000000e+00 0.0000000000000000e+00 0.0000000000000000e+00  -3.0980654978307186e+04 1.1045376569380929e+04 0.0000000000000000e+00 1.1045376569380929e+04 -2.4228085431473803e+04 0.0000000000000000e+00 0.0000000000000000e+00 0.0000000000000000e+00 0.0000000000000000e+00  -2.3063716295713290e+04 9.2389226434001066e+03 0.0000000000000000e+00 9.2389226434001066e+03 -2.0901140693843630e+04 0.0000000000000000e+00 0.0000000000000000e+00 0.0000000000000000e+00 0.0000000000000000e+00  -2.3196865994625379e+04 1.1991893932278639e+04 0.0000000000000000e+00 1.1991893932278639e+04 -9.3803518224640866e+03 0.0000000000000000e+00 0.0000000000000000e+00 0.0000000000000000e+00 0.0000000000000000e+00  -1.1071207964244393e+04 3.8673019515884539e+03 0.0000000000000000e+00 3.8673019515884539e+03 -4.2874730788481784e+03 0.0000000000000000e+00 0.0000000000000000e+00 0.0000000000000000e+00 0.0000000000000000e+00  1.2525466619352275e+04 3.4804532494905544e+02 0.0000000000000000e+00 3.4804532494905544e+02 8.4910764719398500e+01 0.0000000000000000e+00 0.0000000000000000e+00 0.0000000000000000e+00 0.0000000000000000e+00  6.3347004474911264e+03 1.4797334221451356e+03 0.0000000000000000e+00 1.4797334221451356e+03 -2.1213956089126609e+03 0.0000000000000000e+00 0.0000000000000000e+00 0.0000000000000000e+00 0.0000000000000000e+00  1.2059431829808482e+04 -2.8029315409103788e+03 0.0000000000000000e+00 -2.8029315409103788e+03 -2.2551694226938052e+03 0.0000000000000000e+00 0.0000000000000000e+00 0.0000000000000000e+00 0.0000000000000000e+00  1.1759447934673606e+04 -1.1109017254958521e+03 0.0000000000000000e+00 -1.1109017254958521e+03 -1.2970781742495283e+03 0.0000000000000000e+00 0.0000000000000000e+00 0.0000000000000000e+00 0.0000000000000000e+00  -2.8637720715982681e+02 4.9733989592488342e+03 0.0000000000000000e+00 4.9733989592488342e+03 -1.0028789204245628e+04 0.0000000000000000e+00 0.0000000000000000e+00 0.0000000000000000e+00 0.0000000000000000e+00  -1.7705259967504828e+03 4.0960666036185730e+03 0.0000000000000000e+00 4.0960666036185730e+03 -1.2154797954721744e+04 0.0000000000000000e+00 0.0000000000000000e+00 0.0000000000000000e+00 0.0000000000000000e+00  -2.3428854222585056e+02 -5.7181871457473369e+02 0.0000000000000000e+00 -5.7181871457473369e+02 -9.3680328263839147e+03 0.0000000000000000e+00 0.0000000000000000e+00 0.0000000000000000e+00 0.0000000000000000e+00  2.6823703289963055e+03 -1.5881194001461538e+03 0.0000000000000000e+00 -1.5881194001461538e+03 -7.6823426552215524e+03 0.0000000000000000e+00 0.0000000000000000e+00 0.0000000000000000e+00 0.0000000000000000e+00  -4.4491897889758184e+03 1.0328144632703950e+04 0.0000000000000000e+00 1.0328144632703950e+04 -2.5720221908881904e+04 0.0000000000000000e+00 0.0000000000000000e+00 0.0000000000000000e+00 0.0000000000000000e+00  -3.9311091228771784e+03 6.2258841337019230e+03 0.0000000000000000e+00 6.2258841337019230e+03 -2.6257342293931222e+04 0.0000000000000000e+00 0.0000000000000000e+00 0.0000000000000000e+00 0.0000000000000000e+00  -5.3510067525009654e+03 2.4700716863901639e+03 0.0000000000000000e+00 2.4700716863901639e+03 -2.2052778494562335e+04 0.0000000000000000e+00 0.0000000000000000e+00 0.0000000000000000e+00 0.0000000000000000e+00  7.8757620084199539e+02 -9.4524681014375233e+02 0.0000000000000000e+00 -9.4524681014375233e+02 -1.7889087763825268e+04 0.0000000000000000e+00 0.0000000000000000e+00 0.0000000000000000e+00 0.0000000000000000e+00  -1.4915546620056011e+04 1.4507094091456836e+04 0.0000000000000000e+00 1.4507094091456836e+04 -4.3349753517786696e+04 0.0000000000000000e+00 0.0000000000000000e+00 0.0000000000000000e+00 0.0000000000000000e+00  -1.3595264226947869e+04 4.9629739324629172e+03 0.0000000000000000e+00 4.9629739324629172e+03 -4.7424278968282189e+04 0.0000000000000000e+00 0.0000000000000000e+00 0.0000000000000000e+00 0.0000000000000000e+00  -1.8893865374151788e+04 5.3521023202686756e+03 0.0000000000000000e+00 5.3521023202686756e+03 -3.3925782553324163e+04 0.0000000000000000e+00 0.0000000000000000e+00 0.0000000000000000e+00 0.0000000000000000e+00  -6.0977554813182278e+03 -9.0994018938425415e+02 0.0000000000000000e+00 -9.0994018938425415e+02 -2.9842976210102192e+04 0.0000000000000000e+00 0.0000000000000000e+00 0.0000000000000000e+00 0.0000000000000000e+00  -5.8408541242982828e+04 2.0736077416063199e+04 0.0000000000000000e+00 2.0736077416063199e+04 -6.1976046435303782e+04 0.0000000000000000e+00 0.0000000000000000e+00 0.0000000000000000e+00 0.0000000000000000e+00  -4.7118062447714205e+04 1.1937900609136590e+04 0.0000000000000000e+00 1.1937900609136590e+04 -5.4972802848559048e+04 0.0000000000000000e+00 0.0000000000000000e+00 0.0000000000000000e+00 0.0000000000000000e+00  -4.7048722174109564e+04 2.2373238030484012e+04 0.0000000000000000e+00 2.2373238030484012e+04 -4.3855053182762174e+04 0.0000000000000000e+00 0.0000000000000000e+00 0.0000000000000000e+00 0.0000000000000000e+00  -2.6506819403130849e+04 3.2586251487267059e+03 0.0000000000000000e+00 3.2586251487267059e+03 -3.4769273635325466e+04 0.0000000000000000e+00 0.0000000000000000e+00 0.0000000000000000e+00 0.0000000000000000e+00  1.2839651514213961e+03 5.1619995336496913e+03 0.0000000000000000e+00 5.1619995336496913e+03 -6.2990313410733722e+02 0.0000000000000000e+00 0.0000000000000000e+00 0.0000000000000000e+00 0.0000000000000000e+00  -8.2607839064607856e+02 8.0909975341638365e+03 0.0000000000000000e+00 8.0909975341638365e+03 -1.2101843398975498e+03 0.0000000000000000e+00 0.0000000000000000e+00 0.0000000000000000e+00 0.0000000000000000e+00  5.3924200959865220e+03 4.6081250806989337e+03 0.0000000000000000e+00 4.6081250806989337e+03 -3.4961513534434298e+03 0.0000000000000000e+00 0.0000000000000000e+00 0.0000000000000000e+00 0.0000000000000000e+00  1.0777127362408621e+04 1.6345616367100333e+03 0.0000000000000000e+00 1.6345616367100333e+03 -1.3876887812079815e+03 0.0000000000000000e+00 0.0000000000000000e+00 0.0000000000000000e+00 0.0000000000000000e+00  -1.2995039576276176e+04 1.8691522738485404e+04 0.0000000000000000e+00 1.8691522738485404e+04 -1.3072679729604348e+04 0.0000000000000000e+00 0.0000000000000000e+00 0.0000000000000000e+00 0.0000000000000000e+00  -6.1236114486395063e+03 1.6749913991899226e+04 0.0000000000000000e+00 1.6749913991899226e+04 -9.5831674913221941e+03 0.0000000000000000e+00 0.0000000000000000e+00 0.0000000000000000e+00 0.0000000000000000e+00  -9.2848304469374325e+03 1.3165362583892829e+04 0.0000000000000000e+00 1.3165362583892829e+04 -1.5026775035560411e+04 0.0000000000000000e+00 0.0000000000000000e+00 0.0000000000000000e+00 0.0000000000000000e+00  1.3665449109670069e+03 8.1118406737618425e+03 0.0000000000000000e+00 8.1118406737618425e+03 -9.3312981621631061e+03 0.0000000000000000e+00 0.0000000000000000e+00 0.0000000000000000e+00 0.0000000000000000e+00  -1.2641610203403325e+04 2.7924647790034753e+04 0.0000000000000000e+00 2.7924647790034753e+04 -2.7328181659813352e+04 0.0000000000000000e+00 0.0000000000000000e+00 0.0000000000000000e+00 0.0000000000000000e+00  -5.4270111869053153e+03 2.4370124297610633e+04 0.0000000000000000e+00 2.4370124297610633e+04 -2.4916227813683792e+04 0.0000000000000000e+00 0.0000000000000000e+00 0.0000000000000000e+00 0.0000000000000000e+00  -1.2921479836140035e+04 2.0248659650652520e+04 0.0000000000000000e+00 2.0248659650652520e+04 -3.4392823880712822e+04 0.0000000000000000e+00 0.0000000000000000e+00 0.0000000000000000e+00 0.0000000000000000e+00  3.2579528022528739e+03 1.2537764308129546e+04 0.0000000000000000e+00 1.2537764308129546e+04 -2.4576942490565609e+04 0.0000000000000000e+00 0.0000000000000000e+00 0.0000000000000000e+00 0.0000000000000000e+00  -2.5109500346617049e+04 4.0193029848716775e+04 0.0000000000000000e+00 4.0193029848716775e+04 -5.1217179654253923e+04 0.0000000000000000e+00 0.0000000000000000e+00 0.0000000000000000e+00 0.0000000000000000e+00  -1.2277320513476885e+04 2.8718035591240699e+04 0.0000000000000000e+00 2.8718035591240699e+04 -4.4072557012631092e+04 0.0000000000000000e+00 0.0000000000000000e+00 0.0000000000000000e+00 0.0000000000000000e+00  -2.5173156093998339e+04 2.5328730788870856e+04 0.0000000000000000e+00 2.5328730788870856e+04 -5.7766618324218362e+04 0.0000000000000000e+00 0.0000000000000000e+00 0.0000000000000000e+00 0.0000000000000000e+00  -8.0933565219526338e+02 1.4911032363634020e+04 0.0000000000000000e+00 1.4911032363634020e+04 -4.6950644557877880e+04 0.0000000000000000e+00 0.0000000000000000e+00 0.0000000000000000e+00 0.0000000000000000e+00  -7.6691974777712487e+04 6.0349853630894650e+04 0.0000000000000000e+00 6.0349853630894650e+04 -7.5086267738950366e+04 0.0000000000000000e+00 0.0000000000000000e+00 0.0000000000000000e+00 0.0000000000000000e+00  -6.9160322565786046e+04 4.5850218729644905e+04 0.0000000000000000e+00 4.5850218729644905e+04 -7.9263601629154829e+04 0.0000000000000000e+00 0.0000000000000000e+00 0.0000000000000000e+00 0.0000000000000000e+00  -7.9533628253771720e+04 3.7916403158195622e+04 0.0000000000000000e+00 3.7916403158195622e+04 -9.8485501293253823e+04 0.0000000000000000e+00 0.0000000000000000e+00 0.0000000000000000e+00 0.0000000000000000e+00  -2.6762493301581093e+04 1.2213766540217079e+04 0.0000000000000000e+00 1.2213766540217079e+04 -7.3123232161756925e+04 0.0000000000000000e+00 0.0000000000000000e+00 0.0000000000000000e+00 0.0000000000000000e+00  -2.0668352538151794e+04 8.4836420699747796e+03 0.0000000000000000e+00 8.4836420699747796e+03 -1.2921996066459599e+03 0.0000000000000000e+00 0.0000000000000000e+00 0.0000000000000000e+00 0.0000000000000000e+00  -1.9187494256776536e+04 1.3440106726869060e+04 0.0000000000000000e+00 1.3440106726869060e+04 1.4791645764603525e+03 0.0000000000000000e+00 0.0000000000000000e+00 0.0000000000000000e+00 0.0000000000000000e+00  -1.4292068466392659e+04 1.2991645672925535e+04 0.0000000000000000e+00 1.2991645672925535e+04 -2.9737160535306457e+03 0.0000000000000000e+00 0.0000000000000000e+00 0.0000000000000000e+00 0.0000000000000000e+00  -2.7062928898096752e+03 4.6493697511367918e+03 0.0000000000000000e+00 4.6493697511367918e+03 1.7053360829223536e+02 0.0000000000000000e+00 0.0000000000000000e+00 0.0000000000000000e+00 0.0000000000000000e+00  -3.4454027524973302e+04 3.0747645133550064e+04 0.0000000000000000e+00 3.0747645133550064e+04 -1.2101688048758968e+04 0.0000000000000000e+00 0.0000000000000000e+00 0.0000000000000000e+00 0.0000000000000000e+00  -1.6083679136841138e+04 2.7964390744669570e+04 0.0000000000000000e+00 2.7964390744669570e+04 -3.4536251873134620e+03 0.0000000000000000e+00 0.0000000000000000e+00 0.0000000000000000e+00 0.0000000000000000e+00  -2.6468828462582042e+04 2.8813454498647079e+04 0.0000000000000000e+00 2.8813454498647079e+04 -1.4746231194616548e+04 0.0000000000000000e+00 0.0000000000000000e+00 0.0000000000000000e+00 0.0000000000000000e+00  -7.2005935658557264e+03 1.8879663960612419e+04 0.0000000000000000e+00 1.8879663960612419e+04 -5.3514553425616004e+03 0.0000000000000000e+00 0.0000000000000000e+00 0.0000000000000000e+00 0.0000000000000000e+00  -3.2881271218192138e+04 4.3881160085051808e+04 0.0000000000000000e+00 4.3881160085051808e+04 -2.3775804563399619e+04 0.0000000000000000e+00 0.0000000000000000e+00 0.0000000000000000e+00 0.0000000000000000e+00  -9.8960993102381108e+03 3.7090743153409589e+04 0.0000000000000000e+00 3.7090743153409589e+04 -1.1289816427399592e+04 0.0000000000000000e+00 0.0000000000000000e+00 0.0000000000000000e+00 0.0000000000000000e+00  -2.8083193270314900e+04 4.0724322927249195e+04 0.0000000000000000e+00 4.0724322927249195e+04 -3.0563415985501419e+04 0.0000000000000000e+00 0.0000000000000000e+00 0.0000000000000000e+00 0.0000000000000000e+00  -1.2307470347881185e+03 2.8754214678365348e+04 0.0000000000000000e+00 2.8754214678365348e+04 -1.7838264787186832e+04 0.0000000000000000e+00 0.0000000000000000e+00 0.0000000000000000e+00 0.0000000000000000e+00  -4.0350010786565945e+04 5.1321215234517353e+04 0.0000000000000000e+00 5.1321215234517353e+04 -2.9080744733784810e+04 0.0000000000000000e+00 0.0000000000000000e+00 0.0000000000000000e+00 0.0000000000000000e+00  -1.2588426099129338e+04 3.8708334164145723e+04 0.0000000000000000e+00 3.8708334164145723e+04 -1.3087685531546449e+04 0.0000000000000000e+00 0.0000000000000000e+00 0.0000000000000000e+00 0.0000000000000000e+00  -3.8469788003769463e+04 5.0737295712484920e+04 0.0000000000000000e+00 5.0737295712484920e+04 -4.6221126024032877e+04 0.0000000000000