<?xml version="1.0"?>
<VTKFile type="UnstructuredGrid"  version="0.1"  >
<UnstructuredGrid>
<Piece  NumberOfPoints="1695" NumberOfCells="3187">
<Points>
<DataArray  type="Float64"  NumberOfComponents="3"  format="ascii">1.925 0.45625 0  1.925 0.44375 0  1.975 0.44375 0  1.975 0.45625 0  1.925 0.35625 0  1.925 0.34375 0  1.975 0.34375 0  1.975 0.35625 0  1.925 0.25625 0  1.925 0.24375 0  1.975 0.24375 0  1.975 0.25625 0  1.925 0.15625 0  1.925 0.14375 0  1.975 0.14375 0  1.975 0.15625 0  1.925 0.05625 0  1.925 0.04375 0  1.975 0.04375 0  1.975 0.05625 0  1.825 0.45625 0  1.825 0.44375 0  1.875 0.44375 0  1.875 0.45625 0  1.825 0.35625 0  1.825 0.34375 0  1.875 0.34375 0  1.875 0.35625 0  1.825 0.25625 0  1.825 0.24375 0  1.875 0.24375 0  1.875 0.25625 0  1.825 0.15625 0  1.825 0.14375 0  1.875 0.14375 0  1.875 0.15625 0  1.825 0.05625 0  1.825 0.04375 0  1.875 0.04375 0  1.875 0.05625 0  1.725 0.45625 0  1.725 0.44375 0  1.775 0.44375 0  1.775 0.45625 0  1.725 0.35625 0  1.725 0.34375 0  1.775 0.34375 0  1.775 0.35625 0  1.725 0.25625 0  1.725 0.24375 0  1.775 0.24375 0  1.775 0.25625 0  1.725 0.15625 0  1.725 0.14375 0  1.775 0.14375 0  1.775 0.15625 0  1.725 0.05625 0  1.725 0.04375 0  1.775 0.04375 0  1.775 0.05625 0  1.625 0.45625 0  1.625 0.44375 0  1.675 0.44375 0  1.675 0.45625 0  1.625 0.35625 0  1.625 0.34375 0  1.675 0.34375 0  1.675 0.35625 0  1.625 0.25625 0  1.625 0.24375 0  1.675 0.24375 0  1.675 0.25625 0  1.625 0.15625 0  1.625 0.14375 0  1.675 0.14375 0  1.675 0.15625 0  1.625 0.05625 0  1.625 0.04375 0  1.675 0.04375 0  1.675 0.05625 0  1.525 0.45625 0  1.525 0.44375 0  1.575 0.44375 0  1.575 0.45625 0  1.525 0.35625 0  1.525 0.34375 0  1.575 0.34375 0  1.575 0.35625 0  1.525 0.25625 0  1.525 0.24375 0  1.575 0.24375 0  1.575 0.25625 0  1.525 0.15625 0  1.525 0.14375 0  1.575 0.14375 0  1.575 0.15625 0  1.525 0.05625 0  1.525 0.04375 0  1.575 0.04375 0  1.575 0.05625 0  1.425 0.45625 0  1.425 0.44375 0  1.475 0.44375 0  1.475 0.45625 0  1.425 0.35625 0  1.425 0.34375 0  1.475 0.34375 0  1.475 0.35625 0  1.425 0.25625 0  1.425 0.24375 0  1.475 0.24375 0  1.475 0.25625 0  1.425 0.15625 0  1.425 0.14375 0  1.475 0.14375 0  1.475 0.15625 0  1.425 0.05625 0  1.425 0.04375 0  1.475 0.04375 0  1.475 0.05625 0  1.325 0.45625 0  1.325 0.44375 0  1.375 0.44375 0  1.375 0.45625 0  1.325 0.35625 0  1.325 0.34375 0  1.375 0.34375 0  1.375 0.35625 0  1.325 0.25625 0  1.325 0.24375 0  1.375 0.24375 0  1.375 0.25625 0  1.325 0.15625 0  1.325 0.14375 0  1.375 0.14375 0  1.375 0.15625 0  1.325 0.05625 0  1.325 0.04375 0  1.375 0.04375 0  1.375 0.05625 0  1.225 0.45625 0  1.225 0.44375 0  1.275 0.44375 0  1.275 0.45625 0  1.225 0.35625 0  1.225 0.34375 0  1.275 0.34375 0  1.275 0.35625 0  1.225 0.25625 0  1.225 0.24375 0  1.275 0.24375 0  1.275 0.25625 0  1.225 0.15625 0  1.225 0.14375 0  1.275 0.14375 0  1.275 0.15625 0  1.225 0.05625 0  1.225 0.04375 0  1.275 0.04375 0  1.275 0.05625 0  1.125 0.45625 0  1.125 0.44375 0  1.175 0.44375 0  1.175 0.45625 0  1.125 0.35625 0  1.125 0.34375 0  1.175 0.34375 0  1.175 0.35625 0  1.125 0.25625 0  1.125 0.24375 0  1.175 0.24375 0  1.175 0.25625 0  1.125 0.15625 0  1.125 0.14375 0  1.175 0.14375 0  1.175 0.15625 0  1.125 0.05625 0  1.125 0.04375 0  1.175 0.04375 0  1.175 0.05625 0  1.025 0.45625 0  1.025 0.44375 0  1.075 0.44375 0  1.075 0.45625 0  1.025 0.35625 0  1.025 0.34375 0  1.075 0.34375 0  1.075 0.35625 0  1.025 0.25625 0  1.025 0.24375 0  1.075 0.24375 0  1.075 0.25625 0  1.025 0.15625 0  1.025 0.14375 0  1.075 0.14375 0  1.075 0.15625 0  1.025 0.05625 0  1.025 0.04375 0  1.075 0.04375 0  1.075 0.05625 0  0.9249999999999999 0.45625 0  0.9249999999999999 0.44375 0  0.975 0.44375 0  0.975 0.45625 0  0.9249999999999999 0.35625 0  0.9249999999999999 0.34375 0  0.975 0.34375 0  0.975 0.35625 0  0.9249999999999999 0.25625 0  0.9249999999999999 0.24375 0  0.975 0.24375 0  0.975 0.25625 0  0.9249999999999999 0.15625 0  0.9249999999999999 0.14375 0  0.975 0.14375 0  0.975 0.15625 0  0.9249999999999999 0.05625 0  0.9249999999999999 0.04375 0  0.975 0.04375 0  0.975 0.05625 0  0.825 0.45625 0  0.825 0.44375 0  0.875 0.44375 0  0.875 0.45625 0  0.825 0.35625 0  0.825 0.34375 0  0.875 0.34375 0  0.875 0.35625 0  0.825 0.25625 0  0.825 0.24375 0  0.875 0.24375 0  0.875 0.25625 0  0.825 0.15625 0  0.825 0.14375 0  0.875 0.14375 0  0.875 0.15625 0  0.825 0.05625 0  0.825 0.04375 0  0.875 0.04375 0  0.875 0.05625 0  0.725 0.45625 0  0.725 0.44375 0  0.775 0.44375 0  0.775 0.45625 0  0.725 0.35625 0  0.725 0.34375 0  0.775 0.34375 0  0.775 0.35625 0  0.725 0.25625 0  0.725 0.24375 0  0.775 0.24375 0  0.775 0.25625 0  0.725 0.15625 0  0.725 0.14375 0  0.775 0.14375 0  0.775 0.15625 0  0.725 0.05625 0  0.725 0.04375 0  0.775 0.04375 0  0.775 0.05625 0  0.625 0.45625 0  0.625 0.44375 0  0.675 0.44375 0  0.675 0.45625 0  0.625 0.35625 0  0.625 0.34375 0  0.675 0.34375 0  0.675 0.35625 0  0.625 0.25625 0  0.625 0.24375 0  0.675 0.24375 0  0.675 0.25625 0  0.625 0.15625 0  0.625 0.14375 0  0.675 0.14375 0  0.675 0.15625 0  0.625 0.05625 0  0.625 0.04375 0  0.675 0.04375 0  0.675 0.05625 0  0.525 0.45625 0  0.525 0.44375 0  0.5750000000000001 0.44375 0  0.5750000000000001 0.45625 0  0.525 0.35625 0  0.525 0.34375 0  0.5750000000000001 0.34375 0  0.5750000000000001 0.35625 0  0.525 0.25625 0  0.525 0.24375 0  0.5750000000000001 0.24375 0  0.5750000000000001 0.25625 0  0.525 0.15625 0  0.525 0.14375 0  0.5750000000000001 0.14375 0  0.5750000000000001 0.15625 0  0.525 0.05625 0  0.525 0.04375 0  0.5750000000000001 0.04375 0  0.5750000000000001 0.05625 0  0.425 0.45625 0  0.425 0.44375 0  0.475 0.44375 0  0.475 0.45625 0  0.425 0.35625 0  0.425 0.34375 0  0.475 0.34375 0  0.475 0.35625 0  0.425 0.25625 0  0.425 0.24375 0  0.475 0.24375 0  0.475 0.25625 0  0.425 0.15625 0  0.425 0.14375 0  0.475 0.14375 0  0.475 0.15625 0  0.425 0.05625 0  0.425 0.04375 0  0.475 0.04375 0  0.475 0.05625 0  0.325 0.45625 0  0.325 0.44375 0  0.375 0.44375 0  0.375 0.45625 0  0.325 0.35625 0  0.325 0.34375 0  0.375 0.34375 0  0.375 0.35625 0  0.325 0.25625 0  0.325 0.24375 0  0.375 0.24375 0  0.375 0.25625 0  0.325 0.15625 0  0.325 0.14375 0  0.375 0.14375 0  0.375 0.15625 0  0.325 0.05625 0  0.325 0.04375 0  0.375 0.04375 0  0.375 0.05625 0  0.225 0.45625 0  0.225 0.44375 0  0.275 0.44375 0  0.275 0.45625 0  0.225 0.35625 0  0.225 0.34375 0  0.275 0.34375 0  0.275 0.35625 0  0.225 0.25625 0  0.225 0.24375 0  0.275 0.24375 0  0.275 0.25625 0  0.225 0.15625 0  0.225 0.14375 0  0.275 0.14375 0  0.275 0.15625 0  0.225 0.05625 0  0.225 0.04375 0  0.275 0.04375 0  0.275 0.05625 0  0.125 0.45625 0  0.125 0.44375 0  0.175 0.44375 0  0.175 0.45625 0  0.125 0.35625 0  0.125 0.34375 0  0.175 0.34375 0  0.175 0.35625 0  0.125 0.25625 0  0.125 0.24375 0  0.175 0.24375 0  0.175 0.25625 0  0.125 0.15625 0  0.125 0.14375 0  0.175 0.14375 0  0.175 0.15625 0  0.125 0.05625 0  0.125 0.04375 0  0.175 0.04375 0  0.175 0.05625 0  0.025 0.45625 0  0.025 0.44375 0  0.07500000000000001 0.44375 0  0.07500000000000001 0.45625 0  0.025 0.35625 0  0.025 0.34375 0  0.07500000000000001 0.34375 0  0.07500000000000001 0.35625 0  0.025 0.25625 0  0.025 0.24375 0  0.07500000000000001 0.24375 0  0.07500000000000001 0.25625 0  0.025 0.15625 0  0.025 0.14375 0  0.07500000000000001 0.14375 0  0.07500000000000001 0.15625 0  0.025 0.05625 0  0.025 0.04375 0  0.07500000000000001 0.04375 0  0.07500000000000001 0.05625 0  1.65 -0.05 0  1.65 -0.1 0  1.85 -0.1 0  1.85 -0.05 0  1.864644660940673 -0.01464466094067262 0  1.9 0 0  2 0 0  2 0.5 0  1.15 0.5 0  1.114644660940673 0.5146446609406726 0  1.1 0.55 0  1.1 0.6 0  0.9 0.6 0  0.9 0.55 0  0.8853553390593274 0.5146446609406726 0  0.85 0.5 0  0 0.5 0  0 0 0  0.1 0 0  0.1353553390593274 -0.01464466094067263 0  0.15 -0.05 0  0.15 -0.1 0  0.35 -0.1 0  0.35 -0.05 0  0.3646446609406726 -0.01464466094067262 0  0.4 0 0  1.6 0 0  1.635355339059327 -0.01464466094067263 0  0 0.25 0  2 0.25 0  0.425 0.5 0  1.575 0.5 0  1 0 0  0 0.125 0  0 0.375 0  2 0.125 0  2 0.375 0  0.6375 0.5 0  0.2125 0.5 0  1.7875 0.5 0  1.3625 0.5 0  1.3 0 0  0.7 0 0  0 0.0625 0  0 0.1875 0  0 0.4375 0  0 0.3125 0  2 0.0625 0  2 0.1875 0  2 0.4375 0  2 0.3125 0  0.7437499999999999 0.5 0  0.53125 0.5 0  0.10625 0.5 0  0.31875 0.5 0  1.89375 0.5 0  1.68125 0.5 0  1.25625 0.5 0  1.46875 0.5 0  1.45 0 0  1.15 0 0  0.55 0 0  0.85 0 0  0 0.03125 0  0 0.15625 0  0 0.46875 0  0 0.34375 0  2 0.03125 0  2 0.15625 0  2 0.46875 0  2 0.34375 0  0.796875 0.5 0  0.6906249999999999 0.5 0  0.478125 0.5 0  0.584375 0.5 0  0.053125 0.5 0  0.159375 0.5 0  0.371875 0.5 0  0.265625 0.5 0  1.946875 0.5 0  1.840625 0.5 0  1.628125 0.5 0  1.734375 0.5 0  1.203125 0.5 0  1.309375 0.5 0  1.521875 0.5 0  1.415625 0.5 0  1.525 0 0  1.375 0 0  1.075 0 0  1.225 0 0  0.475 0 0  0.625 0 0  0.925 0 0  0.7749999999999999 0 0  1.75 -0.1 0  1 0.6 0  0.25 -0.1 0  1 0.5259510869565217 0  0.2779017857142857 -0.03080357142857143 0  1.777901785714286 -0.03080357142857144 0  1.711202019110897 -0.02208661528871769 0  0.211202019110897 -0.0220866152887176 0  1.05 0.6 0  0.95 0.6 0  1.047668862207724 0.5476688622077241 0  0.9436141896114225 0.5114221172297126 0  1.7 0.4 0  1.8 0.4 0  1.5 0.4 0  1.3 0.4 0  1.2 0.4 0  1.2 0.3 0  1.3 0.3 0  1.5 0.3 0  1.7 0.3 0  1.8 0.3 0  1 0.4 0  1.2 0.2 0  1.3 0.2 0  1.5 0.2 0  1.7 0.2 0  1.8 0.2 0  1.8 0.1 0  1.7 0.1 0  1.5 0.1 0  1.3 0.1 0  1.2 0.1 0  1 0.3 0  0.2 0.4 0  1.9 0.4 0  1.6 0.4 0  1.4 0.4 0  1.1 0.4 0  0.85 0.4 0  0.75 0.4 0  0.65 0.4 0  0.55 0.4 0  0.45 0.4 0  0.35 0.4 0  1 0.2 0  1 0.1 0  0.05 0.4 0  0.35 0.3 0  0.45 0.3 0  1.1 0.3 0  1.4 0.3 0  1.6 0.3 0  1.9 0.3 0  0.85 0.3 0  0.75 0.3 0  0.65 0.3 0  0.55 0.3 0  0.05 0.3 0  0.2 0.3 0  1.1 0.2 0  1.4 0.2 0  1.6 0.2 0  1.9 0.2 0  1.9 0.1 0  1.6 0.1 0  1.4 0.1 0  1.1 0.1 0  0.85 0.2 0  0.85 0.1 0  0.75 0.2 0  0.75 0.1 0  0.65 0.2 0  0.65 0.1 0  0.55 0.2 0  0.55 0.1 0  0.45 0.2 0  0.45 0.1 0  0.35 0.2 0  0.35 0.1 0  0.2 0.2 0  0.2 0.1 0  0.05 0.2 0  0.05 0.1 0  1.95 0 0  1.8 -0.1 0  1.7 -0.1
[...]
<PointData  Vectors="f_204"> 
<DataArray  type="Float64"  Name="f_204"  NumberOfComponents="3" format="ascii">-4.5482828718597585e-04 4.9974303499984252e-05 0.0000000000000000e+00  -4.3378025081346612e-04 4.9974384176800167e-05 0.0000000000000000e+00  -4.3377940350662874e-04 1.3416584231288090e-04 0.0000000000000000e+00  -4.5482783758724228e-04 1.3416590806207519e-04 0.0000000000000000e+00  -2.7896490722660860e-04 4.7119858564896228e-05 0.0000000000000000e+00  -2.5848267180170783e-04 4.7119575868701528e-05 0.0000000000000000e+00  -2.5848319608674059e-04 1.2904666565678472e-04 0.0000000000000000e+00  -2.7896607108574868e-04 1.2904734376182489e-04 0.0000000000000000e+00  -1.1204098530901316e-04 4.0818412151280614e-05 0.0000000000000000e+00  -9.3607046156774407e-05 4.0817796098936907e-05 0.0000000000000000e+00  -9.3609018044415034e-05 1.1455116267466280e-04 0.0000000000000000e+00  -1.1204322451376047e-04 1.1455236707025106e-04 0.0000000000000000e+00  2.8102454950613687e-05 3.1847292620762997e-05 0.0000000000000000e+00  4.3441706137605216e-05 3.1846299030340840e-05 0.0000000000000000e+00  4.3437994781682272e-05 9.3203476841599946e-05 0.0000000000000000e+00  2.8098542728110836e-05 9.3204976973836640e-05 0.0000000000000000e+00  1.3077014813281645e-04 1.9232773991464668e-05 0.0000000000000000e+00  1.4511819655798854e-04 1.9232186411146828e-05 0.0000000000000000e+00  1.4511785857338437e-04 7.6631561080287095e-05 0.0000000000000000e+00  1.3076927521560804e-04 7.6631934084873935e-05 0.0000000000000000e+00  -4.5802154168010900e-04 -1.1661243161237189e-04 0.0000000000000000e+00  -4.3684106978387051e-04 -1.1661203049785904e-04 0.0000000000000000e+00  -4.3683783553653295e-04 -3.1895237596728606e-05 0.0000000000000000e+00  -4.5801705070673717e-04 -3.1895722992859034e-05 0.0000000000000000e+00  -2.7882475461100313e-04 -1.1341824309701422e-04 0.0000000000000000e+00  -2.5831355613092064e-04 -1.1341801661916635e-04 0.0000000000000000e+00  -2.5831352689196905e-04 -3.1378130358245950e-05 0.0000000000000000e+00  -2.7882403497121017e-04 -3.1378170801439137e-05 0.0000000000000000e+00  -1.1014423380233948e-04 -1.0430494925971770e-04 0.0000000000000000e+00  -9.1579103488231424e-05 -1.0430445216730342e-04 0.0000000000000000e+00  -9.1580144733391708e-05 -3.0047940886230515e-05 0.0000000000000000e+00  -1.1014469347348956e-04 -3.0047869117903604e-05 0.0000000000000000e+00  3.4638958567642115e-05 -8.9460014167293831e-05 0.0000000000000000e+00  4.9561313611241911e-05 -8.9459662857715005e-05 0.0000000000000000e+00  4.9556862661050000e-05 -2.9772789785981703e-05 0.0000000000000000e+00  3.4634884814476347e-05 -2.9772184797597308e-05 0.0000000000000000e+00  1.3671969594865140e-04 -7.4738044754724532e-05 0.0000000000000000e+00  1.4582018165793675e-04 -7.4737531005592835e-05 0.0000000000000000e+00  1.4581691999241512e-04 -3.8324879000873676e-05 0.0000000000000000e+00  1.3671151248271143e-04 -3.8322869171556495e-05 0.0000000000000000e+00  -4.6556128319132501e-04 -2.9875932866566760e-04 0.0000000000000000e+00  -4.4191270860898023e-04 -2.9875886510367450e-04 0.0000000000000000e+00  -4.4190886302193693e-04 -2.0416980866172637e-04 0.0000000000000000e+00  -4.6555463267836187e-04 -2.0417076330520831e-04 0.0000000000000000e+00  -2.8054063573926914e-04 -2.9087294007397929e-04 0.0000000000000000e+00  -2.5746228903780624e-04 -2.9087229354573738e-04 0.0000000000000000e+00  -2.5746221944178058e-04 -1.9855925717550188e-04 0.0000000000000000e+00  -2.8053924000119731e-04 -1.9855999145209548e-04 0.0000000000000000e+00  -1.1110025734556446e-04 -2.6785673459129493e-04 0.0000000000000000e+00  -8.9635320459661714e-05 -2.6785486299696549e-04 0.0000000000000000e+00  -8.9633882215497338e-05 -1.8199331180782118e-04 0.0000000000000000e+00  -1.1109747492739962e-04 -1.8199484362937189e-04 0.0000000000000000e+00  3.8299607982993656e-05 -2.2306245294332223e-04 0.0000000000000000e+00  5.6183642076665803e-05 -2.2305947045763455e-04 0.0000000000000000e+00  5.6183733096941002e-05 -1.5152443917787695e-04 0.0000000000000000e+00  3.8302200244348792e-05 -1.5152647635778714e-04 0.0000000000000000e+00  1.4723123819875337e-04 -1.5247642757764118e-04 0.0000000000000000e+00  1.5790457791782099e-04 -1.5247411009390802e-04 0.0000000000000000e+00  1.5789193068166971e-04 -1.0977997145113151e-04 0.0000000000000000e+00  1.4722302083871027e-04 -1.0978181152250842e-04 0.0000000000000000e+00  -4.7240935706712459e-04 -5.1331468048394812e-04 0.0000000000000000e+00  -4.4470027207372035e-04 -5.1331491457081563e-04 0.0000000000000000e+00  -4.4470138903764415e-04 -4.0247992069576558e-04 0.0000000000000000e+00  -4.7240747207614499e-04 -4.0248051478194156e-04 0.0000000000000000e+00  -2.8034972985863560e-04 -5.0513754104204354e-04 0.0000000000000000e+00  -2.5301075810612688e-04 -5.0513719935725923e-04 0.0000000000000000e+00  -2.5301452745124270e-04 -3.9577210571497504e-04 0.0000000000000000e+00  -2.8035165600088271e-04 -3.9577296245026740e-04 0.0000000000000000e+00  -1.1427243898476509e-04 -4.7933462054857725e-04 0.0000000000000000e+00  -8.7123016648844113e-05 -4.7933260685000900e-04 0.0000000000000000e+00  -8.7122790344770041e-05 -3.7071992323799749e-04 0.0000000000000000e+00  -1.1426996017989974e-04 -3.7072244271499041e-04 0.0000000000000000e+00  3.3685784789036091e-05 -4.2706958534182701e-04 0.0000000000000000e+00  6.0960621640725433e-05 -4.2706612513194504e-04 0.0000000000000000e+00  6.0961261914030213e-05 -3.1795232644715304e-04 0.0000000000000000e+00  3.3691716463302904e-05 -3.1795696258971859e-04 0.0000000000000000e+00  1.6640028591837636e-04 -3.3694032065669248e-04 0.0000000000000000e+00  1.9395350163165561e-04 -3.3693773569240792e-04 0.0000000000000000e+00  1.9392946681173290e-04 -2.2671861627758215e-04 0.0000000000000000e+00  1.6639120813328816e-04 -2.2672460231661524e-04 0.0000000000000000e+00  -4.6807741611595898e-04 -7.6436759645995994e-04 0.0000000000000000e+00  -4.3635373304677443e-04 -7.6436933683448954e-04 0.0000000000000000e+00  -4.3636585513642074e-04 -6.3747281020991190e-04 0.0000000000000000e+00  -4.6808602346965942e-04 -6.3747230136437013e-04 0.0000000000000000e+00  -2.7116867576561216e-04 -7.5999746287257381e-04 0.0000000000000000e+00  -2.3984801689284977e-04 -7.5999840736523910e-04 0.0000000000000000e+00  -2.3986036253476932e-04 -6.3469731698800338e-04 0.0000000000000000e+00  -2.7117904430128164e-04 -6.3469726688347380e-04 0.0000000000000000e+00  -1.1085208171389352e-04 -7.4424727078661868e-04 0.0000000000000000e+00  -7.8694490865551442e-05 -7.4424672677840173e-04 0.0000000000000000e+00  -7.8701568842860434e-05 -6.1558763845725843e-04 0.0000000000000000e+00  -1.1085740684211593e-04 -6.1558924004639459e-04 0.0000000000000000e+00  3.5624800517347197e-05 -7.1738872480791877e-04 0.0000000000000000e+00  7.0820421531219696e-05 -7.1738797496282986e-04 0.0000000000000000e+00  7.0812310421484740e-05 -5.7657320372478589e-04 0.0000000000000000e+00  3.5620361594482873e-05 -5.7657604451282667e-04 0.0000000000000000e+00  2.0840309741726774e-04 -6.9733277276693892e-04 0.0000000000000000e+00  2.5096378230427539e-04 -6.9733500896489013e-04 0.0000000000000000e+00  2.5092773033801805e-04 -5.2705997055503496e-04 0.0000000000000000e+00  2.0837086818389192e-04 -5.2705942772283878e-04 0.0000000000000000e+00  -4.4119128931988414e-04 -1.0378770431560133e-03 0.0000000000000000e+00  -4.0753973862089757e-04 -1.0378807044511345e-03 0.0000000000000000e+00  -4.0756858378277383e-04 -9.0326719334681504e-04 0.0000000000000000e+00  -4.4121786781387343e-04 -9.0326463492334847e-04 0.0000000000000000e+00  -2.4640007626003222e-04 -1.0400791646271270e-03 0.0000000000000000e+00  -2.1298928085689069e-04 -1.0400816177540332e-03 0.0000000000000000e+00  -2.1301176435213794e-04 -9.0641385375222930e-04 0.0000000000000000e+00  -2.4642118334414751e-04 -9.0641229929994561e-04 0.0000000000000000e+00  -9.4715551570730310e-05 -1.0348294663606338e-03 0.0000000000000000e+00  -6.0988418181157270e-05 -1.0348302085814130e-03 0.0000000000000000e+00  -6.1002207831085020e-05 -8.9988704455707140e-04 0.0000000000000000e+00  -9.4728176439941777e-05 -8.9988707565077236e-04 0.0000000000000000e+00  5.0317856700945176e-05 -1.0265906928913430e-03 0.0000000000000000e+00  8.5794534324376410e-05 -1.0265907040183542e-03 0.0000000000000000e+00  8.5786166860861847e-05 -8.8464769822052980e-04 0.0000000000000000e+00  5.0309668873806049e-05 -8.8464826376808531e-04 0.0000000000000000e+00  2.4087750697123302e-04 -1.0254163002224020e-03 0.0000000000000000e+00  2.7889102215726194e-04 -1.0254160507097156e-03 0.0000000000000000e+00  2.7888553379782358e-04 -8.7333879632355341e-04 0.0000000000000000e+00  2.4086813295958972e-04 -8.7333738837655711e-04 0.0000000000000000e+00  -3.8777006059347328e-04 -1.3186738433607736e-03 0.0000000000000000e+00  -3.5365731965152173e-04 -1.3186805135586923e-03 0.0000000000000000e+00  -3.5370805107550477e-04 -1.1822140924831045e-03 0.0000000000000000e+00  -3.8782270488860345e-04 -1.1822080396729539e-03 0.0000000000000000e+00  -2.0372792321208052e-04 -1.3224116947089736e-03 0.0000000000000000e+00  -1.7105771445549139e-04 -1.3224152336408111e-03 0.0000000000000000e+00  -1.7109070197605399e-04 -1.1917020599164743e-03 0.0000000000000000e+00  -2.0376148407202826e-04 -1.1916988201507248e-03 0.0000000000000000e+00  -6.9640428142286195e-05 -1.3187348544497553e-03 0.0000000000000000e+00  -3.7634827240553787e-05 -1.3187356577644901e-03 0.0000000000000000e+00  -3.7650017683775275e-05 -1.1906698208426450e-03 0.0000000000000000e+00  -6.9659028714429358e-05 -1.1906683909633281e-03 0.0000000000000000e+00  6.0423073481993616e-05 -1.3132084953088310e-03 0.0000000000000000e+00  9.2605730577929437e-05 -1.3132073376471254e-03 0.0000000000000000e+00  9.2606656422923505e-05 -1.1844379099661705e-03 0.0000000000000000e+00  6.0420581769054691e-05 -1.1844382391759389e-03 0.0000000000000000e+00  2.3479457774410961e-04 -1.3104225896342170e-03 0.0000000000000000e+00  2.6783233086014838e-04 -1.3104187094880536e-03 0.0000000000000000e+00  2.6785386851634567e-04 -1.1782392348164571e-03 0.0000000000000000e+00  2.3480957487494048e-04 -1.1782407716753440e-03 0.0000000000000000e+00  -3.0024628719594492e-04 -1.6010408546942674e-03 0.0000000000000000e+00  -2.6633531986978482e-04 -1.6010483972845166e-03 0.0000000000000000e+00  -2.6640366990914559e-04 -1.4653869418823112e-03 0.0000000000000000e+00  -3.0031521689315182e-04 -1.4653790857038817e-03 0.0000000000000000e+00  -1.4618141954057023e-04 -1.5902149071508062e-03 0.0000000000000000e+00  -1.1636136764173630e-04 -1.5902170768661704e-03 0.0000000000000000e+00  -1.1639601821529956e-04 -1.4708896466649056e-03 0.0000000000000000e+00  -1.4622196797184166e-04 -1.4708858528748247e-03 0.0000000000000000e+00  -4.3282284871148633e-05 -1.5711385574280587e-03 0.0000000000000000e+00  -1.6055321436247527e-05 -1.5711380256062889e-03 0.0000000000000000e+00  -1.6066512017566249e-05 -1.4621869366101511e-03 0.0000000000000000e+00  -4.3297339325921401e-05 -1.4621862244841449e-03 0.0000000000000000e+00  5.7630772546861351e-05 -1.5566477228730474e-03 0.0000000000000000e+00  8.4061702101977665e-05 -1.5566447084853683e-03 0.0000000000000000e+00  8.4074225317122553e-05 -1.4508804720246137e-03 0.0000000000000000e+00  5.7637075656854544e-05 -1.4508816520603179e-03 0.0000000000000000e+00  1.9621056917177080e-04 -1.5473556618985408e-03 0.0000000000000000e+00  2.2315900923575852e-04 -1.5473500633607217e-03 0.0000000000000000e+00  2.2320148162127183e-04 -1.4395327929127978e-03 0.0000000000000000e+00  1.9624589356857924e-04 -1.4395368352069326e-03 0.0000000000000000e+00  -1.7350929954742581e-04 -1.8801081858463113e-03 0.0000000000000000e+00  -1.4280825906699490e-04 -1.8801105140117960e-03 0.0000000000000000e+00  -1.4287744969602905e-04 -1.7572374470065965e-03 0.0000000000000000e+00  -1.7359403472632488e-04 -1.7572294478322798e-03 0.0000000000000000e+00  -8.3607997737712573e-05 -1.8079057167473978e-03 0.0000000000000000e+00  -6.1872928462415830e-05 -1.8079053249277130e-03 0.0000000000000000e+00  -6.1902596377451009e-05 -1.7209222254370984e-03 0.0000000000000000e+00  -8.3643405962128699e-05 -1.7209203875924220e-03 0.0000000000000000e+00  -2.1075657696775389e-05 -1.7601006989359138e-03 0.0000000000000000e+00  -2.3830033123875752e-06 -1.7600983586686496e-03 0.0000000000000000e+00  -2.3861718353244104e-06 -1.6852875402812706e-03 0.0000000000000000e+00  -2.1085321323399826e-05 -1.6852880504364634e-03 0.0000000000000000e+00  4.1453725940942908e-05 -1.7312649344243252e-03 0.0000000000000000e+00  5.8770555986127337e-05 -1.7312604581813603e-03 0.0000000000000000e+00  5.8793234785174136e-05 -1.6619578131434893e-03 0.0000000000000000e+00  4.1468768657650689e-05 -1.6619602101134100e-03 0.0000000000000000e+00  1.2986108969603895e-04 -1.7165040666220328e-03 0.0000000000000000e+00  1.4770694024651205e-04 -1.7164967683440651e-03 0.0000000000000000e+00  1.4776239590253055e-04 -1.6450969714127291e-03 0.0000000000000000e+00  1.2991357746086558e-04 -1.6451036805988654e-03 0.0000000000000000e+00  -5.1852446464384117e-05 -2.0061507505049086e-03 0.0000000000000000e+00  -4.3328461598954992e-05 -2.0061514769365292e-03 0.0000000000000000e+00  -4.3383111339774309e-05 -1.9720160820995815e-03 0.0000000000000000e+00  -5.1920515864575236e-05 -1.9720130286602685e-03 0.0000000000000000e+00  -2.6081094476735554e-05 -1.9129041714076183e-03 0.0000000000000000e+00  -1.8587689881876794e-05 -1.9129022211092559e-03 0.0000000000000000e+00  -1.8608683093729488e-05 -1.8828960157290864e-03 0.0000000000000000e+00  -2.6111774621075774e-05 -1.8828960078329663e-03 0.0000000000000000e+00  -5.8251909732627639e-06 -1.8498258319300739e-03 0.0000000000000000e+00  7.7083941292290574e-07 -1.8498226318750242e-03 0.0000000000000000e+00  7.7336092154581595e-07 -1.8234122741865913e-03 0.0000000000000000e+00  -5.8302944375334452e-06 -1.8234138861741153e-03 0.0000000000000000e+00  1.5395671403756607e-05 -1.8127712033186810e-03 0.0000000000000000e+00  2.1501028153744320e-05 -1.8127656763681872e-03 0.0000000000000000e+00  2.1531834394175072e-05 -1.7883176036665152e-03 0.0000000000000000e+00  1.5416861681865458e-05 -1.7883210448890667e-03 0.0000000000000000e+00  4.4280700581050478e-05 -1.7908414873555034e-03 0.0000000000000000e+00  4.9866570123365442e-05 -1.7908311856500042e-03 0.0000000000000000e+00  4.9937170899527230e-05 -1.7684555998386928e-03 0.0000000000000000e+00  4.4340485692484961e-05 -1.7684631156349975e-03 0.0000000000000000e+00  5.5130814396889507e-05 -1.9712744902023634e-03 0.0000000000000000e+00  4.6468203467426443e-05 -1.9712753427799314e-03 0.0000000000000000e+00  4.6413137690937676e-05 -2.0059155632889945e-03 0.0000000000000000e+00  5.5064140772978079e-05 -2.0059122149804062e-03 0.0000000000000000e+00  2.8716723752745646e-05 -1.8818813600456796e-03 0.0000000000000000e+00  2.0926738399640476e-05 -1.8818802267487819e-03 0.0000000000000000e+00  2.0904203571906018e-05 -1.9130348728403613e-03 0.0000000000000000e+00  2.8687057227022002e-05 -1.9130349601228708e-03 0.0000000000000000e+00  7.0618010102332593e-06 -1.8229283988850287e-03 0.0000000000000000e+00  3.9856316347589226e-07 -1.8229258720034529e-03 0.0000000000000000e+00  4.0104972659641974e-07 -1.8495729253199154e-03 0.0000000000000000e+00  7.0569363830805254e-06 -1.8495745005586970e-03 0.0000000000000000e+00  -1.4752248242406842e-05 -1.7876557540818547e-03 0.0000000000000000e+00  -2.0779344563582062e-05 -1.7876512090850946e-03 0.0000000000000000e+00  -2.0750225450625582e-05 -1.8117497895462653e-03 0.0000000000000000e+00  -1.4731436053121396e-05 -1.8117532211242178e-03 0.0000000000000000e+00  -4.4715918097346548e-05 -1.7666622904602984e-03 0.0000000000000000e+00  -5.0605796491415676e-05 -1.7666539034536964e-03 0.0000000000000000e+00  -5.0535310377733588e-05 -1.7901962550074286e-03 0.0000000000000000e+00  -4.4656894397232533e-05 -1.7902032963353154e-03 0.0000000000000000e+00  1.7596399732318647e-04 -1.7565954589912056e-03 0.0000000000000000e+00  1.4584292316902327e-04 -1.7566034871240735e-03 0.0000000000000000e+00  1.4576896777072297e-04 -1.8771135344022622e-03 0.0000000000000000e+00  1.7588316960066554e-04 -1.8771075947880630e-03 0.0000000000000000e+00  8.5999588702408153e-05 -1.7184039070202847e-03 0.0000000000000000e+00  6.3999563994257338e-05 -1.7184059654574025e-03 0.0000000000000000e+00  6.3969923103729317e-05 -1.8064200153815229e-03 0.0000000000000000e+00  8.5961608270291069e-05 -1.8064178820581616e-03 0.0000000000000000e+00  2.2540483941627631e-05 -1.6835897404293965e-03 0.0000000000000000e+00  3.7981008330105604e-06 -1.6835890652155566e-03 0.0000000000000000e+00  3.7941902315410083e-06 -1.7585734884204372e-03 0.0000000000000000e+00  2.2530995329242020e-05 -1.7585736376843062e-03 0.0000000000000000e+00  -4.1126704575170809e-05 -1.6601433836709234e-03 0.0000000000000000e+00  -5.8627231852646815e-05 -1.6601404531699610e-03 0.0000000000000000e+00  -5.8605179737794274e-05 -1.7301496608343010e-03 0.0000000000000000e+00  -4.1110532433714377e-05 -1.7301522542411158e-03 0.0000000000000000e+00  -1.2867896206994098e-04 -1.6440321577227334e-03 0.0000000000000000e+00  -1.4628575758905300e-04 -1.6440255335652848e-03 0.0000000000000000e+00  -1.4622855540322115e-04 -1.7144537603429137e-03 0.0000000000000000e+00  -1.2862549951955871e-04 -1.7144605141773187e-03 0.0000000000000000e+00  3.0246552290636510e-04 -1.4628734182114348e-03 0.0000000000000000e+00  2.6789946802748205e-04 -1.4628826759639211e-03 0.0000000000000000e+00  2.6782681843066540e-04 -1.6011762309467584e-03 0.0000000000000000e+00  3.0239727505036550e-04 -1.6011680895241475e-03 0.0000000000000000e+00  1.4811974507884635e-04 -1.4686677430825103e-03 0.0000000000000000e+00  1.1794273732518413e-04 -1.4686724070340238e-03 0.0000000000000000e+00  1.1790676094973948e-04 -1.5894081407302966e-03 0.0000000000000000e+00  1.4807950706623036e-04 -1.5894040406620852e-03 0.0000000000000000e+00  4.4581282891250910e-05 -1.4601169638051793e-03 0.0000000000000000e+00  1.7374369294657317e-05 -1.4601182962975016e-03 0.0000000000000000e+00  1.7363064027015816e-05 -1.5689746455541851e-03 0.0000000000000000e+00  4.4565918479653652e-05 -1.5689728756094542e-03 0.0000000000000000e+00  -5.7027110143927936e-05 -1.4490253197282127e-03 0.0000000000000000e+00  -8.3421990500449184e-05 -1.4490241407712156e-03 0.0000000000000000e+00  -8.3410271072722065e-05 -1.5546227909532357e-03 0.0000000000000000e+00  -5.7019809626400391e-05 -1.5546237661796577e-03 0.0000000000000000e+00  -1.9599438114115841e-04 -1.4373587201981740e-03 0.0000000000000000e+00  -2.2318523002880035e-04 -1.4373534316726912e-03 0.0000000000000000e+00  -2.2314369461182203e-04 -1.5461126606107758e-03 0.0000000000000000e+00  -1.9595838025815351e-04 -1.5461171818210229e-03 0.0000000000000000e+00  3.8928376328387602e-04 -1.1799207690243840e-03 0.0000000000000000e+00  3.5520489515836841e-04 -1.1799269165689858e-03 0.0000000000000000e+00  3.5515473753290925e-04 -1.3162527750991899e-03 0.0000000000000000e+00  3.8923098263352008e-04 -1.3162455141579920e-03 0.0000000000000000e+00  2.0527663339551963e-04 -1.1890813883900619e-03 0.0000000000000000e+00  1.7233145874532896e-04 -1.1890857499138494e-03 0.0000000000000000e+00  1.7230004512352678e-04 -1.3208952592279287e-03 0.0000000000000000e+00  2.0524298157144989e-04 -1.3208908299344685e-03 0.0000000000000000e+00  7.1009556372195274e-05 -1.1885485917203342e-03 0.0000000000000000e+00  3.9109761673737903e-05 -1.1885506840829071e-03 0.0000000000000000e+00  3.9094898796062894e-05 -1.3161841458667119e-03 0.0000000000000000e+00  7.0991994065823348e-05 -1.3161814706948549e-03 0.0000000000000000e+00  -5.9579627317553230e-05 -1.1817983631418974e-03 0.0000000000000000e+00  -9.1840101361636791e-05 -1.1817986678409778e-03 0.0000000000000000e+00  -9.1839677171282074e-05 -1.3108680112193275e-03 0.0000000000000000e+00  -5.9581846062106555e-05 -1.3108674648397830e-03 0.0000000000000000e+00  -2.3457120373659575e-04 -1.1753248400422488e-03 0.0000000000000000e+00  -2.6773730204922205e-04 -1.1753231771435507e-03 0.0000000000000000e+00  -2.6771688241487531e-04 