<?xml version="1.0"?>
<VTKFile type="UnstructuredGrid"  version="0.1"  >
<UnstructuredGrid>
<Piece  NumberOfPoints="1617" NumberOfCells="3051">
<Points>
<DataArray  type="Float64"  NumberOfComponents="3"  format="ascii">1.925 0.4625 0  1.925 0.4375 0  1.975 0.4375 0  1.975 0.4625 0  1.925 0.3625 0  1.925 0.3375 0  1.975 0.3375 0  1.975 0.3625 0  1.925 0.2625 0  1.925 0.2375 0  1.975 0.2375 0  1.975 0.2625 0  1.925 0.1625 0  1.925 0.1375 0  1.975 0.1375 0  1.975 0.1625 0  1.925 0.0625 0  1.925 0.03750000000000001 0  1.975 0.03750000000000001 0  1.975 0.0625 0  1.825 0.4625 0  1.825 0.4375 0  1.875 0.4375 0  1.875 0.4625 0  1.825 0.3625 0  1.825 0.3375 0  1.875 0.3375 0  1.875 0.3625 0  1.825 0.2625 0  1.825 0.2375 0  1.875 0.2375 0  1.875 0.2625 0  1.825 0.1625 0  1.825 0.1375 0  1.875 0.1375 0  1.875 0.1625 0  1.825 0.0625 0  1.825 0.03750000000000001 0  1.875 0.03750000000000001 0  1.875 0.0625 0  1.725 0.4625 0  1.725 0.4375 0  1.775 0.4375 0  1.775 0.4625 0  1.725 0.3625 0  1.725 0.3375 0  1.775 0.3375 0  1.775 0.3625 0  1.725 0.2625 0  1.725 0.2375 0  1.775 0.2375 0  1.775 0.2625 0  1.725 0.1625 0  1.725 0.1375 0  1.775 0.1375 0  1.775 0.1625 0  1.725 0.0625 0  1.725 0.03750000000000001 0  1.775 0.03750000000000001 0  1.775 0.0625 0  1.625 0.4625 0  1.625 0.4375 0  1.675 0.4375 0  1.675 0.4625 0  1.625 0.3625 0  1.625 0.3375 0  1.675 0.3375 0  1.675 0.3625 0  1.625 0.2625 0  1.625 0.2375 0  1.675 0.2375 0  1.675 0.2625 0  1.625 0.1625 0  1.625 0.1375 0  1.675 0.1375 0  1.675 0.1625 0  1.625 0.0625 0  1.625 0.03750000000000001 0  1.675 0.03750000000000001 0  1.675 0.0625 0  1.525 0.4625 0  1.525 0.4375 0  1.575 0.4375 0  1.575 0.4625 0  1.525 0.3625 0  1.525 0.3375 0  1.575 0.3375 0  1.575 0.3625 0  1.525 0.2625 0  1.525 0.2375 0  1.575 0.2375 0  1.575 0.2625 0  1.525 0.1625 0  1.525 0.1375 0  1.575 0.1375 0  1.575 0.1625 0  1.525 0.0625 0  1.525 0.03750000000000001 0  1.575 0.03750000000000001 0  1.575 0.0625 0  1.425 0.4625 0  1.425 0.4375 0  1.475 0.4375 0  1.475 0.4625 0  1.425 0.3625 0  1.425 0.3375 0  1.475 0.3375 0  1.475 0.3625 0  1.425 0.2625 0  1.425 0.2375 0  1.475 0.2375 0  1.475 0.2625 0  1.425 0.1625 0  1.425 0.1375 0  1.475 0.1375 0  1.475 0.1625 0  1.425 0.0625 0  1.425 0.03750000000000001 0  1.475 0.03750000000000001 0  1.475 0.0625 0  1.325 0.4625 0  1.325 0.4375 0  1.375 0.4375 0  1.375 0.4625 0  1.325 0.3625 0  1.325 0.3375 0  1.375 0.3375 0  1.375 0.3625 0  1.325 0.2625 0  1.325 0.2375 0  1.375 0.2375 0  1.375 0.2625 0  1.325 0.1625 0  1.325 0.1375 0  1.375 0.1375 0  1.375 0.1625 0  1.325 0.0625 0  1.325 0.03750000000000001 0  1.375 0.03750000000000001 0  1.375 0.0625 0  1.225 0.4625 0  1.225 0.4375 0  1.275 0.4375 0  1.275 0.4625 0  1.225 0.3625 0  1.225 0.3375 0  1.275 0.3375 0  1.275 0.3625 0  1.225 0.2625 0  1.225 0.2375 0  1.275 0.2375 0  1.275 0.2625 0  1.225 0.1625 0  1.225 0.1375 0  1.275 0.1375 0  1.275 0.1625 0  1.225 0.0625 0  1.225 0.03750000000000001 0  1.275 0.03750000000000001 0  1.275 0.0625 0  1.125 0.4625 0  1.125 0.4375 0  1.175 0.4375 0  1.175 0.4625 0  1.125 0.3625 0  1.125 0.3375 0  1.175 0.3375 0  1.175 0.3625 0  1.125 0.2625 0  1.125 0.2375 0  1.175 0.2375 0  1.175 0.2625 0  1.125 0.1625 0  1.125 0.1375 0  1.175 0.1375 0  1.175 0.1625 0  1.125 0.0625 0  1.125 0.03750000000000001 0  1.175 0.03750000000000001 0  1.175 0.0625 0  1.025 0.4625 0  1.025 0.4375 0  1.075 0.4375 0  1.075 0.4625 0  1.025 0.3625 0  1.025 0.3375 0  1.075 0.3375 0  1.075 0.3625 0  1.025 0.2625 0  1.025 0.2375 0  1.075 0.2375 0  1.075 0.2625 0  1.025 0.1625 0  1.025 0.1375 0  1.075 0.1375 0  1.075 0.1625 0  1.025 0.0625 0  1.025 0.03750000000000001 0  1.075 0.03750000000000001 0  1.075 0.0625 0  0.9249999999999999 0.4625 0  0.9249999999999999 0.4375 0  0.975 0.4375 0  0.975 0.4625 0  0.9249999999999999 0.3625 0  0.9249999999999999 0.3375 0  0.975 0.3375 0  0.975 0.3625 0  0.9249999999999999 0.2625 0  0.9249999999999999 0.2375 0  0.975 0.2375 0  0.975 0.2625 0  0.9249999999999999 0.1625 0  0.9249999999999999 0.1375 0  0.975 0.1375 0  0.975 0.1625 0  0.9249999999999999 0.0625 0  0.9249999999999999 0.03750000000000001 0  0.975 0.03750000000000001 0  0.975 0.0625 0  0.825 0.4625 0  0.825 0.4375 0  0.875 0.4375 0  0.875 0.4625 0  0.825 0.3625 0  0.825 0.3375 0  0.875 0.3375 0  0.875 0.3625 0  0.825 0.2625 0  0.825 0.2375 0  0.875 0.2375 0  0.875 0.2625 0  0.825 0.1625 0  0.825 0.1375 0  0.875 0.1375 0  0.875 0.1625 0  0.825 0.0625 0  0.825 0.03750000000000001 0  0.875 0.03750000000000001 0  0.875 0.0625 0  0.725 0.4625 0  0.725 0.4375 0  0.775 0.4375 0  0.775 0.4625 0  0.725 0.3625 0  0.725 0.3375 0  0.775 0.3375 0  0.775 0.3625 0  0.725 0.2625 0  0.725 0.2375 0  0.775 0.2375 0  0.775 0.2625 0  0.725 0.1625 0  0.725 0.1375 0  0.775 0.1375 0  0.775 0.1625 0  0.725 0.0625 0  0.725 0.03750000000000001 0  0.775 0.03750000000000001 0  0.775 0.0625 0  0.625 0.4625 0  0.625 0.4375 0  0.675 0.4375 0  0.675 0.4625 0  0.625 0.3625 0  0.625 0.3375 0  0.675 0.3375 0  0.675 0.3625 0  0.625 0.2625 0  0.625 0.2375 0  0.675 0.2375 0  0.675 0.2625 0  0.625 0.1625 0  0.625 0.1375 0  0.675 0.1375 0  0.675 0.1625 0  0.625 0.0625 0  0.625 0.03750000000000001 0  0.675 0.03750000000000001 0  0.675 0.0625 0  0.525 0.4625 0  0.525 0.4375 0  0.5750000000000001 0.4375 0  0.5750000000000001 0.4625 0  0.525 0.3625 0  0.525 0.3375 0  0.5750000000000001 0.3375 0  0.5750000000000001 0.3625 0  0.525 0.2625 0  0.525 0.2375 0  0.5750000000000001 0.2375 0  0.5750000000000001 0.2625 0  0.525 0.1625 0  0.525 0.1375 0  0.5750000000000001 0.1375 0  0.5750000000000001 0.1625 0  0.525 0.0625 0  0.525 0.03750000000000001 0  0.5750000000000001 0.03750000000000001 0  0.5750000000000001 0.0625 0  0.425 0.4625 0  0.425 0.4375 0  0.475 0.4375 0  0.475 0.4625 0  0.425 0.3625 0  0.425 0.3375 0  0.475 0.3375 0  0.475 0.3625 0  0.425 0.2625 0  0.425 0.2375 0  0.475 0.2375 0  0.475 0.2625 0  0.425 0.1625 0  0.425 0.1375 0  0.475 0.1375 0  0.475 0.1625 0  0.425 0.0625 0  0.425 0.03750000000000001 0  0.475 0.03750000000000001 0  0.475 0.0625 0  0.325 0.4625 0  0.325 0.4375 0  0.375 0.4375 0  0.375 0.4625 0  0.325 0.3625 0  0.325 0.3375 0  0.375 0.3375 0  0.375 0.3625 0  0.325 0.2625 0  0.325 0.2375 0  0.375 0.2375 0  0.375 0.2625 0  0.325 0.1625 0  0.325 0.1375 0  0.375 0.1375 0  0.375 0.1625 0  0.325 0.0625 0  0.325 0.03750000000000001 0  0.375 0.03750000000000001 0  0.375 0.0625 0  0.225 0.4625 0  0.225 0.4375 0  0.275 0.4375 0  0.275 0.4625 0  0.225 0.3625 0  0.225 0.3375 0  0.275 0.3375 0  0.275 0.3625 0  0.225 0.2625 0  0.225 0.2375 0  0.275 0.2375 0  0.275 0.2625 0  0.225 0.1625 0  0.225 0.1375 0  0.275 0.1375 0  0.275 0.1625 0  0.225 0.0625 0  0.225 0.03750000000000001 0  0.275 0.03750000000000001 0  0.275 0.0625 0  0.125 0.4625 0  0.125 0.4375 0  0.175 0.4375 0  0.175 0.4625 0  0.125 0.3625 0  0.125 0.3375 0  0.175 0.3375 0  0.175 0.3625 0  0.125 0.2625 0  0.125 0.2375 0  0.175 0.2375 0  0.175 0.2625 0  0.125 0.1625 0  0.125 0.1375 0  0.175 0.1375 0  0.175 0.1625 0  0.125 0.0625 0  0.125 0.03750000000000001 0  0.175 0.03750000000000001 0  0.175 0.0625 0  0.025 0.4625 0  0.025 0.4375 0  0.07500000000000001 0.4375 0  0.07500000000000001 0.4625 0  0.025 0.3625 0  0.025 0.3375 0  0.07500000000000001 0.3375 0  0.07500000000000001 0.3625 0  0.025 0.2625 0  0.025 0.2375 0  0.07500000000000001 0.2375 0  0.07500000000000001 0.2625 0  0.025 0.1625 0  0.025 0.1375 0  0.07500000000000001 0.1375 0  0.07500000000000001 0.1625 0  0.025 0.0625 0  0.025 0.03750000000000001 0  0.07500000000000001 0.03750000000000001 0  0.07500000000000001 0.0625 0  1.65 -0.05 0  1.65 -0.1 0  1.95 -0.1 0  1.95 -0.05 0  1.964644660940673 -0.01464466094067262 0  2 0 0  2 0.5 0  1.2 0.5 0  1.164644660940673 0.5146446609406726 0  1.15 0.5499999999999999 0  1.15 0.6 0  0.85 0.6 0  0.85 0.55 0  0.8353553390593274 0.5146446609406726 0  0.8 0.5 0  1 0.5 0  0 0.5 0  0 0 0  0.03535533905932739 -0.01464466094067263 0  0.04999999999999999 -0.05 0  0.04999999999999999 -0.1 0  0.35 -0.1 0  0.35 -0.05 0  0.3646446609406727 -0.01464466094067262 0  0.4 0 0  1.6 0 0  1.635355339059327 -0.01464466094067263 0  2 0.25 0  1.8 -0.1 0  0.8765366864730179 0.5 0  0.2 -0.1 0  0 0.25 0  0.4 0.5 0  1 0.6 0  1.6 0.5 0  1 0 0  2 0.375 0  2 0.125 0  0.9382683432365089 0.5 0  0.838268343236509 0.5 0  0 0.125 0  0 0.375 0  0.6000000000000001 0.5 0  0.2 0.5 0  1.4 0.5 0  1.8 0.5 0  1.3 0 0  0.7 0 0  2 0.4375 0  2 0.3125 0  2 0.0625 0  2 0.1875 0  0 0.0625 0  0 0.1875 0  0 0.4375 0  0 0.3125 0  0.7000000000000001 0.5 0  0.5 0.5 0  0.1 0.5 0  0.3 0.5 0  1.3 0.5 0  1.5 0.5 0  1.9 0.5 0  1.7 0.5 0  1.45 0 0  1.15 0 0  0.55 0 0  0.85 0 0  2 0.46875 0  2 0.34375 0  2 0.03125 0  2 0.15625 0  0 0.03125 0  0 0.21875 0  0 0.15625 0  0 0.46875 0  0 0.28125 0  0 0.34375 0  0.75 0.5 0  0.6500000000000001 0.5 0  0.45 0.5 0  0.55 0.5 0  0.05 0.5 0  0.15 0.5 0  0.35 0.5 0  0.25 0.5 0  1.25 0.5 0  1.35 0.5 0  1.55 0.5 0  1.45 0.5 0  1.95 0.5 0  1.85 0.5 0  1.65 0.5 0  1.75 0.5 0  1.525 0 0  1.375 0 0  1.075 0 0  1.225 0 0  0.475 0 0  0.625 0 0  0.925 0 0  0.7749999999999999 0 0  1.075 0.6 0  1.875 -0.1 0  1.725 -0.1 0  0.275 -0.1 0  0.125 -0.1 0  0.925 0.6 0  0.25 -0.03125 0  0.1625 -0.03579545454545455 0  1.85 -0.03125 0  1.7625 -0.03579545454545455 0  1.0625 0.53125 0  0.9691341716182544 0.55 0  1.7 -0.0169642857142857 0  0.1033366890997352 -0.01982430494263018 0  0.9057886815224064 0.5475669777163904 0  1.112036335279094 0.5134989411628127 0  1.897713414634147 -0.05282012195121953 0  0.2977134146341464 -0.0528201219512195 0  1.804960892236385 -0.008707402823132791 0  0.2049608922363847 -0.008707402823132832 0  1.01665752126518 0.5448099574696401 0  1.917339046654921 -0.009467383746031326 0  0.3173390466549212 -0.009467383746031351 0  1.103055247562616 0.5608328713439231 0  1.804272303748862 -0.05445107198578146 0  0.2042723037488618 -0.05445107198578146 0  1.3 0.4 0  1.8 0.4 0  1.7 0.4 0  1.5 0.4 0  1.2 0.4 0  1.6875 -0.1 0  1.8 0.2 0  1.8 0.09999999999999999 0  1.7 0.2 0  1.7 0.09999999999999999 0  1.5 0.2 0  1.5 0.0999999999
[...]
<PointData  Vectors="f_204"> 
<DataArray  type="Float64"  Name="f_204"  NumberOfComponents="3" format="ascii">-6.8235163824625718e-07 5.4876999129764447e-08 0.0000000000000000e+00  -6.2354490132036393e-07 5.4888141861212812e-08 0.0000000000000000e+00  -6.2308492789647963e-07 1.7051199534910346e-07 0.0000000000000000e+00  -6.8188461502960663e-07 1.7069172307827482e-07 0.0000000000000000e+00  -4.3752924875923073e-07 5.0116403503858544e-08 0.0000000000000000e+00  -3.7958595525023848e-07 4.9331951774655586e-08 0.0000000000000000e+00  -3.8010005962089767e-07 1.6097887634454397e-07 0.0000000000000000e+00  -4.3840951459641697e-07 1.6268895098723126e-07 0.0000000000000000e+00  -2.0288165171065986e-07 3.8764937822897491e-08 0.0000000000000000e+00  -1.5255317090901811e-07 3.7353670972320746e-08 0.0000000000000000e+00  -1.5419616396363365e-07 1.3303488790930722e-07 0.0000000000000000e+00  -2.0522628176711677e-07 1.3676870189578663e-07 0.0000000000000000e+00  -1.1241702147882682e-08 2.2079227562747784e-08 0.0000000000000000e+00  2.3649682614990873e-08 2.0101265030150450e-08 0.0000000000000000e+00  2.0879664942391309e-08 8.7367967065418636e-08 0.0000000000000000e+00  -1.5024266085769893e-08 9.2484837758443149e-08 0.0000000000000000e+00  9.7364353609245250e-08 2.7170788027101927e-09 0.0000000000000000e+00  1.1255849676437327e-07 2.5942776722764353e-10 0.0000000000000000e+00  1.0869599166833683e-07 3.4963676613943056e-08 0.0000000000000000e+00  9.2695953588980905e-08 3.9759313311052901e-08 0.0000000000000000e+00  -6.9090052609100271e-07 -1.7278751371624360e-07 0.0000000000000000e+00  -6.3059585236162466e-07 -1.7207388849034814e-07 0.0000000000000000e+00  -6.2805344759473240e-07 -5.5668492836688091e-08 0.0000000000000000e+00  -6.8748314037906209e-07 -5.6253414048175463e-08 0.0000000000000000e+00  -4.3955135428369450e-07 -1.6703447193190030e-07 0.0000000000000000e+00  -3.8097198573180539e-07 -1.6608316615291770e-07 0.0000000000000000e+00  -3.8011494459033418e-07 -5.4442699299610396e-08 0.0000000000000000e+00  -4.3853717293437360e-07 -5.4605748751412826e-08 0.0000000000000000e+00  -2.0226321502885246e-07 -1.5166972102845769e-07 0.0000000000000000e+00  -1.5081228577363991e-07 -1.4966309965090191e-07 0.0000000000000000e+00  -1.5034407680629921e-07 -5.1613570365302199e-08 0.0000000000000000e+00  -2.0199132411109079e-07 -5.1919458986580537e-08 0.0000000000000000e+00  -4.9117385171030822e-09 -1.2319431406685299e-07 0.0000000000000000e+00  3.3437308618583154e-08 -1.2058743479575620e-07 0.0000000000000000e+00  3.1464663870429803e-08 -4.6773624992813225e-08 0.0000000000000000e+00  -6.7271080458462531e-09 -4.6939467504031569e-08 0.0000000000000000e+00  1.1601019142711727e-07 -8.4987814195659350e-08 0.0000000000000000e+00  1.3297974931437247e-07 -8.2640238653758499e-08 0.0000000000000000e+00  1.2713509939761232e-07 -4.1245253346266792e-08 0.0000000000000000e+00  1.1017869941129658e-07 -4.1378980901315169e-08 0.0000000000000000e+00  -7.0937634786421723e-07 -4.2547570494058218e-07 0.0000000000000000e+00  -6.4183359122506875e-07 -4.2454214755788445e-07 0.0000000000000000e+00  -6.3863819030401956e-07 -2.9176052473727760e-07 0.0000000000000000e+00  -7.0399986003203741e-07 -2.9313372039462161e-07 0.0000000000000000e+00  -4.4603248013959069e-07 -4.1299899956425521e-07 0.0000000000000000e+00  -3.8198818272827280e-07 -4.1101871069740263e-07 0.0000000000000000e+00  -3.8095823892338228e-07 -2.8190521653568828e-07 0.0000000000000000e+00  -4.4425002550136236e-07 -2.8371413272135771e-07 0.0000000000000000e+00  -2.0705738242082445e-07 -3.7901929277575056e-07 0.0000000000000000e+00  -1.4921998007639918e-07 -3.7437088530827618e-07 0.0000000000000000e+00  -1.4760036655450102e-07 -2.5471014885879124e-07 0.0000000000000000e+00  -2.0503125668094890e-07 -2.5836366603705738e-07 0.0000000000000000e+00  -1.1064990252698594e-09 -3.1414996640775163e-07 0.0000000000000000e+00  4.7355121796865434e-08 -3.0696689176322486e-07 0.0000000000000000e+00  4.6813054236881731e-08 -2.0549478206431154e-07 0.0000000000000000e+00  -3.2513008695713441e-10 -2.1081345076909778e-07 0.0000000000000000e+00  1.5062282736809830e-07 -2.1691993223691652e-07 0.0000000000000000e+00  1.7893479929512316e-07 -2.0987129292756864e-07 0.0000000000000000e+00  1.6708460939530136e-07 -1.4393178427037890e-07 0.0000000000000000e+00  1.4201614417636601e-07 -1.4858377783179148e-07 0.0000000000000000e+00  -7.2545926577330764e-07 -7.2971681691959666e-07 0.0000000000000000e+00  -6.4761000031881940e-07 -7.2945371073054482e-07 0.0000000000000000e+00  -6.4706575829002472e-07 -5.7094372374991184e-07 0.0000000000000000e+00  -7.2240151335632701e-07 -5.7214932986158264e-07 0.0000000000000000e+00  -4.4761726230834133e-07 -7.1764467930056254e-07 0.0000000000000000e+00  -3.7567592133441804e-07 -7.1611368265779010e-07 0.0000000000000000e+00  -3.7724687730497116e-07 -5.5980570458918348e-07 0.0000000000000000e+00  -4.4811206218553163e-07 -5.6193106101007799e-07 0.0000000000000000e+00  -2.1091171305695502e-07 -6.8187285899057887e-07 0.0000000000000000e+00  -1.4318636302295061e-07 -6.7719094188149842e-07 0.0000000000000000e+00  -1.4323402486075722e-07 -5.2176076389001065e-07 0.0000000000000000e+00  -2.0984829507169430e-07 -5.2706463257004992e-07 0.0000000000000000e+00  -2.4271361107990298e-09 -6.1025950782317507e-07 0.0000000000000000e+00  6.3931738904988909e-08 -6.0243019779653284e-07 0.0000000000000000e+00  6.3056750491617936e-08 -4.4537789988283865e-07 0.0000000000000000e+00  -3.0128858674483773e-10 -4.5465076032594009e-07 0.0000000000000000e+00  1.9082467254940226e-07 -4.9346500253736926e-07 0.0000000000000000e+00  2.5813660122302130e-07 -4.8453448414971776e-07 0.0000000000000000e+00  2.4036665935104844e-07 -3.2358322172293677e-07 0.0000000000000000e+00  1.8410082265604497e-07 -3.3617671183864316e-07 0.0000000000000000e+00  -7.1977594959818639e-07 -1.0893243456603875e-06 0.0000000000000000e+00  -6.3281936364924201e-07 -1.0908114716947521e-06 0.0000000000000000e+00  -6.3909755202498150e-07 -9.0839365983355605e-07 0.0000000000000000e+00  -7.2436400067592431e-07 -9.0804955981626884e-07 0.0000000000000000e+00  -4.3101011734860620e-07 -1.0847790521286338e-06 0.0000000000000000e+00  -3.5254645197218101e-07 -1.0850318171940183e-06 0.0000000000000000e+00  -3.5970867435877641e-07 -9.0434415603288134e-07 0.0000000000000000e+00  -4.3738535417228948e-07 -9.0503457891180692e-07 0.0000000000000000e+00  -1.9907749965497761e-07 -1.0640620992607840e-06 0.0000000000000000e+00  -1.2371378403898829e-07 -1.0619912397146151e-06 0.0000000000000000e+00  -1.2884759696069991e-07 -8.7691789608229776e-07 0.0000000000000000e+00  -2.0320737879975498e-07 -8.8045001494458893e-07 0.0000000000000000e+00  1.2489550156353524e-08 -1.0280980265145710e-06 0.0000000000000000e+00  9.3980233394794840e-08 -1.0259063811392234e-06 0.0000000000000000e+00  8.6255410009815198e-08 -8.2288577240995764e-07 0.0000000000000000e+00  8.0869395254266027e-09 -8.2875863645297585e-07 0.0000000000000000e+00  2.6600979690453578e-07 -1.0028886210577662e-06 0.0000000000000000e+00  3.7340536977324260e-07 -1.0062143253546821e-06 0.0000000000000000e+00  3.4649327163170540e-07 -7.6028542878060283e-07 0.0000000000000000e+00  2.4751510556850216e-07 -7.6275814179544315e-07 0.0000000000000000e+00  -6.7434898559497402e-07 -1.4874502492906534e-06 0.0000000000000000e+00  -5.8233300673321491e-07 -1.4916957316186937e-06 0.0000000000000000e+00  -5.9935824413130268e-07 -1.2947133930194617e-06 0.0000000000000000e+00  -6.9091453147991967e-07 -1.2917929084422426e-06 0.0000000000000000e+00  -3.8583749125826693e-07 -1.4920680423914268e-06 0.0000000000000000e+00  -3.0549425218749607e-07 -1.4941929603883245e-06 0.0000000000000000e+00  -3.1939018897235380e-07 -1.3017918210204457e-06 0.0000000000000000e+00  -4.0011754961335648e-07 -1.3001019362605891e-06 0.0000000000000000e+00  -1.6576328573597134e-07 -1.4855699403103154e-06 0.0000000000000000e+00  -8.9092635289135029e-08 -1.4857767976852927e-06 0.0000000000000000e+00  -9.8279712554961976e-08 -1.2920354560293031e-06 0.0000000000000000e+00  -1.7525106555980549e-07 -1.2925280806344951e-06 0.0000000000000000e+00  4.4865187315623900e-08 -1.4753237016257164e-06 0.0000000000000000e+00  1.2727517696896875e-07 -1.4750658951989226e-06 0.0000000000000000e+00  1.2006264489736668e-07 -1.2712054377455501e-06 0.0000000000000000e+00  3.7535102880582908e-08 -1.2722560628809174e-06 0.0000000000000000e+00  3.1986940760273052e-07 -1.4751038518569106e-06 0.0000000000000000e+00  4.1842612373245601e-07 -1.4750220841982084e-06 0.0000000000000000e+00  4.1365783984776416e-07 -1.2587654393115277e-06 0.0000000000000000e+00  3.1252146486762719e-07 -1.2571174666019436e-06 0.0000000000000000e+00  -5.7615385476762815e-07 -1.9009715339445068e-06 0.0000000000000000e+00  -4.8451710262433991e-07 -1.9081388292487974e-06 0.0000000000000000e+00  -5.1472486087689382e-07 -1.7076195487820767e-06 0.0000000000000000e+00  -6.0769073940276680e-07 -1.7015059844335035e-06 0.0000000000000000e+00  -3.1094654540688485e-07 -1.9068156185862815e-06 0.0000000000000000e+00  -2.3592835204560931e-07 -1.9090030738655693e-06 0.0000000000000000e+00  -2.5470304495445420e-07 -1.7208661459381242e-06 0.0000000000000000e+00  -3.3244488862212577e-07 -1.7174551576802246e-06 0.0000000000000000e+00  -1.2009477377340481e-07 -1.8973391395743627e-06 0.0000000000000000e+00  -5.0638809074972305e-08 -1.8970567760033235e-06 0.0000000000000000e+00  -5.9706824644754323e-08 -1.7160432738332821e-06 0.0000000000000000e+00  -1.3122885426746790e-07 -1.7155543335807416e-06 0.0000000000000000e+00  6.7122109495483988e-08 -1.8882147658964724e-06 0.0000000000000000e+00  1.4028576111342123e-07 -1.8867971329873118e-06 0.0000000000000000e+00  1.3978651908319021e-07 -1.7047903766020937e-06 0.0000000000000000e+00  6.3753301170352151e-08 -1.7051386460350864e-06 0.0000000000000000e+00  3.1308036691172069e-07 -1.8843985321933879e-06 0.0000000000000000e+00  3.9757307108354874e-07 -1.8809724252314895e-06 0.0000000000000000e+00  4.0914039405134547e-07 -1.6939632178028541e-06 0.0000000000000000e+00  3.1999386664882564e-07 -1.6953830139891634e-06 0.0000000000000000e+00  -4.1176159258007821e-07 -2.3232762680723889e-06 0.0000000000000000e+00  -3.3354134590927824e-07 -2.3274515059724407e-06 0.0000000000000000e+00  -3.7408608351440874e-07 -2.1320797301718971e-06 0.0000000000000000e+00  -4.6284912113626281e-07 -2.1231812815472392e-06 0.0000000000000000e+00  -2.1729066383910014e-07 -2.2894730015118498e-06 0.0000000000000000e+00  -1.5705487346176815e-07 -2.2881255228561142e-06 0.0000000000000000e+00  -1.7518985876078777e-07 -2.1256550347398803e-06 0.0000000000000000e+00  -2.4100371904832454e-07 -2.1234350202888635e-06 0.0000000000000000e+00  -7.5988843806935763e-08 -2.2541902775412110e-06 0.0000000000000000e+00  -2.1122221015175806e-08 -2.2516498317729182e-06 0.0000000000000000e+00  -2.6459383514174581e-08 -2.1033173243384612e-06 0.0000000000000000e+00  -8.5535861149383648e-08 -2.1036274576696778e-06 0.0000000000000000e+00  6.7223111326277023e-08 -2.2314666444080741e-06 0.0000000000000000e+00  1.2415532818194317e-07 -2.2278695801530327e-06 0.0000000000000000e+00  1.3103435113764308e-07 -2.0830068578988248e-06 0.0000000000000000e+00  6.9784634889024561e-08 -2.0847877011257282e-06 0.0000000000000000e+00  2.5690930247576242e-07 -2.2171920062030992e-06 0.0000000000000000e+00  3.2136834749123232e-07 -2.2103481136553237e-06 0.0000000000000000e+00  3.4656944841959018e-07 -2.0641620040444475e-06 0.0000000000000000e+00  2.7523079470462938e-07 -2.0681477131789445e-06 0.0000000000000000e+00  -2.1862386358945234e-07 -2.6590899880204831e-06 0.0000000000000000e+00  -1.8138632023837710e-07 -2.6538001814897829e-06 0.0000000000000000e+00  -2.1241479513705987e-07 -2.5393871901324155e-06 0.0000000000000000e+00  -2.6096603982152594e-07 -2.5399788155198899e-06 0.0000000000000000e+00  -1.2532744365198687e-07 -2.5682039720740911e-06 0.0000000000000000e+00  -8.9015341856320345e-08 -2.5635231381438431e-06 0.0000000000000000e+00  -1.0317825926790767e-07 -2.4601876783879722e-06 0.0000000000000000e+00  -1.4507067283893009e-07 -2.4625361262726147e-06 0.0000000000000000e+00  -4.0866047135345166e-08 -2.5079250629011124e-06 0.0000000000000000e+00  -6.9097712323065118e-09 -2.5032678581221272e-06 0.0000000000000000e+00  -8.3271520543255098e-09 -2.4070257086981763e-06 0.0000000000000000e+00  -4.7295347089465072e-08 -2.4095766528738993e-06 0.0000000000000000e+00  4.6435384997402758e-08 -2.4712377037122283e-06 0.0000000000000000e+00  8.1676548385227381e-08 -2.4658872016434283e-06 0.0000000000000000e+00  9.4615159630143304e-08 -2.3726886317793975e-06 0.0000000000000000e+00  5.4226930259892609e-08 -2.3761396817709527e-06 0.0000000000000000e+00  1.6271086703691592e-07 -2.4488921620794319e-06 0.0000000000000000e+00  2.0264225401239272e-07 -2.4404182623786313e-06 0.0000000000000000e+00  2.3731477047184041e-07 -2.3461628981467641e-06 0.0000000000000000e+00  1.8978072916135141e-07 -2.3519782971460158e-06 0.0000000000000000e+00  -5.6867741238033434e-08 -2.7704722960883911e-06 0.0000000000000000e+00  -4.9339740671243343e-08 -2.7664868039983060e-06 0.0000000000000000e+00  -7.8980184527570675e-08 -2.7353492208288189e-06 0.0000000000000000e+00  -9.2511643044966203e-08 -2.7373669941384363e-06 0.0000000000000000e+00  -3.5941411020230991e-08 -2.6852543718460331e-06 0.0000000000000000e+00  -2.6155133644335506e-08 -2.6808752996974904e-06 0.0000000000000000e+00  -4.0216920474422098e-08 -2.6479980771133826e-06 0.0000000000000000e+00  -5.5231193190072094e-08 -2.6512952441384649e-06 0.0000000000000000e+00  -1.2503213818190120e-08 -2.6219020160033741e-06 0.0000000000000000e+00  -2.6076584190659068e-09 -2.6168705017389612e-06 0.0000000000000000e+00  -2.2007252768010421e-09 -2.5845367169384780e-06 0.0000000000000000e+00  -1.7097190235494650e-08 -2.5880062968636314e-06 0.0000000000000000e+00  1.2321653002402574e-08 -2.5802739793618019e-06 0.0000000000000000e+00  2.2384179855795283e-08 -2.5741894006844043e-06 0.0000000000000000e+00  3.8842073032200353e-08 -2.5424374484566066e-06 0.0000000000000000e+00  2.2988345764306076e-08 -2.5468549796745241e-06 0.0000000000000000e+00  4.4950683359626729e-08 -2.5527129988824110e-06 0.0000000000000000e+00  5.5670956327642729e-08 -2.5430545352214252e-06 0.0000000000000000e+00  9.6423324472089234e-08 -2.5100668771547101e-06 0.0000000000000000e+00  7.6606988154774600e-08 -2.5176157257616080e-06 0.0000000000000000e+00  9.2490366994520462e-08 -2.7381953551543185e-06 0.0000000000000000e+00  7.7920495052340079e-08 -2.7344248269495338e-06 0.0000000000000000e+00  4.8226765456176688e-08 -2.7660378501599543e-06 0.0000000000000000e+00  5.7150770906333148e-08 -2.7683069423108816e-06 0.0000000000000000e+00  5.4123889625029235e-08 -2.6511318810183948e-06 0.0000000000000000e+00  3.8203784388342544e-08 -2.6468653634947721e-06 0.0000000000000000e+00  2.4264096377223588e-08 -2.6808047978138260e-06 0.0000000000000000e+00  3.5169576421437227e-08 -2.6839320776757286e-06 0.0000000000000000e+00  1.5495683763232143e-08 -2.5883044670277319e-06 0.0000000000000000e+00  4.2240989222377010e-12 -2.5837026280852769e-06 0.0000000000000000e+00  3.9454415237422120e-10 -2.6172399777794687e-06 0.0000000000000000e+00  1.0766489321835749e-08 -2.6206031687389609e-06 0.0000000000000000e+00  -2.4957116140612373e-08 -2.5474696009022536e-06 0.0000000000000000e+00  -4.1408381137633439e-08 -2.5416943874181474e-06 0.0000000000000000e+00  -2.5238307002224162e-08 -2.5750043673951504e-06 0.0000000000000000e+00  -1.4453715627478932e-08 -2.5793582726520130e-06 0.0000000000000000e+00  -7.9117231381267606e-08 -2.5188056005430717e-06 0.0000000000000000e+00  -9.9383682779775113e-08 -2.5089657284024895e-06 0.0000000000000000e+00  -5.8578141112083964e-08 -2.5440569530441647e-06 0.0000000000000000e+00  -4.7406383133686092e-08 -2.5515114770609064e-06 0.0000000000000000e+00  2.5928144752525861e-07 -2.5409350448810504e-06 0.0000000000000000e+00  2.1243034752482420e-07 -2.5380536563303271e-06 0.0000000000000000e+00  1.7951739726144484e-07 -2.6524412451608471e-06 0.0000000000000000e+00  2.1769184052936853e-07 -2.6540643555351471e-06 0.0000000000000000e+00  1.4442568412519654e-07 -2.4624387032313876e-06 0.0000000000000000e+00  1.0192997593705982e-07 -2.4592663702991620e-06 0.0000000000000000e+00  8.7406003508678827e-08 -2.5634003621880550e-06 0.0000000000000000e+00  1.2521654653776041e-07 -2.5662347225987901e-06 0.0000000000000000e+00  4.5638846507560174e-08 -2.4096600491596918e-06 0.0000000000000000e+00  6.4470356145600128e-09 -2.4063562657820448e-06 0.0000000000000000e+00  5.1342857478401503e-09 -2.5030367495660584e-06 0.0000000000000000e+00  3.9924162882582026e-08 -2.5057522932817721e-06 0.0000000000000000e+00  -5.6272510277849021e-08 -2.3757700702734936e-06 0.0000000000000000e+00  -9.7232671380317508e-08 -2.3714287412483969e-06 0.0000000000000000e+00  -8.3538898233439202e-08 -2.4666949353165870e-06 0.0000000000000000e+00  -4.7945649683222581e-08 -2.4700436344579727e-06 0.0000000000000000e+00  -1.9282903435710872e-07 -2.3527214075578243e-06 0.0000000000000000e+00  -2.3981114221016718e-07 -2.3453496924571086e-06 0.0000000000000000e+00  -2.0518302581828592e-07 -2.4413894765762729e-06 0.0000000000000000e+00  -1.6475842125090547e-07 -2.4475999781631053e-06 0.0000000000000000e+00  4.6190509056071724e-07 -2.1221910994216651e-06 0.0000000000000000e+00  3.7345522476285518e-07 -2.1306842969240553e-06 0.0000000000000000e+00  3.3015593586594053e-07 -2.3293518647672746e-06 0.0000000000000000e+00  4.1182978646194998e-07 -2.3222309108207297e-06 0.0000000000000000e+00  2.3921826077064490e-07 -2.1224892235538897e-06 0.0000000000000000e+00  1.7402519656226941e-07 -2.1247053774898282e-06 0.0000000000000000e+00  1.5499378841836200e-07 -2.2882386862288292e-06 0.0000000000000000e+00  2.1621503042338162e-07 -2.2874104731848701e-06 0.0000000000000000e+00  8.3739931771338531e-08 -2.1032408392283750e-06 0.0000000000000000e+00  2.4924222116176736e-08 -2.1028400376222476e-06 0.0000000000000000e+00  1.9414383816717966e-08 -2.2518713742100334e-06 0.0000000000000000e+00  7.4794123300552314e-08 -2.2524877373653286e-06 0.0000000000000000e+00  -7.1555067156115133e-08 -2.0846698809027721e-06 0.0000000000000000e+00  -1.3295749695405576e-07 -2.0824776846460053e-06 0.0000000000000000e+00  -1.2597833132376702e-07 -2.2283698865051365e-06 0.0000000000000000e+00  -6.8628016654176544e-08 -2.2301661536256043e-06 0.0000000000000000e+00  -2.7704997761939404e-07 -2.0682898116968698e-06 0.0000000000000000e+00  -3.4827269782202512e-07 -2.0630623635677401e-06 0.0000000000000000e+00  -3.2349762587243501e-07 -2.2111680534900566e-06 0.0000000000000000e+00  -2.5808731809261015e-07 -2.2159571215361755e-06 0.0000000000000000e+00  6.0651274470262844e-07 -1.7002252806509046e-06 0.0000000000000000e+00  5.1297821217410863e-07 -1.7066105104090454e-06 0.0000000000000000e+00  4.8328127454357973e-07 -1.9089920949721005e-06 0.0000000000000000e+00  5.7430270764993921e-07 -1.9013559917086971e-06 0.0000000000000000e+00  3.3107603881815251e-07 -1.7169391045766924e-06 0.0000000000000000e+00  2.5362296799011188e-07 -1.7203634322379220e-06 0.0000000000000000e+00  2.3476746912968422e-07 -1.9085678949236937e-06 0.0000000000000000e+00  3.0989500317767508e-07 -1.9048421062182078e-06 0.0000000000000000e+00  1.3024759335186079e-07 -1.7147816872281378e-06 0.0000000000000000e+00  5.8166681284223978e-08 -1.7157810312499794e-06 0.0000000000000000e+00  4.9321263487643780e-08 -1.8970774905678501e-06 0.0000000000000000e+00  1.1902080633860334e-07 -1.8956917502291642e-06 0.0000000000000000e+00  -6.5321989058707808e-08 -1.7047019607271391e-06 0.0000000000000000e+00  -1.4133035106630191e-07 -1.7044950423471964e-06 0.0000000000000000e+00  -1.4157501154254902e-07 -1.8874512247349256e-06 0.0000000000000000e+00  -6.8235156808584109e-08 -1.8872167948725850e-06 0.0000000000000000e+00  -3.2127785597945615e-07 -1.6954679655078891e-06 0.0000000000000000e+00  -4.1046537690938167e-07 -1.6934438764861290e-06 0.0000000000000000e+00  -3.99177843271