<?xml version="1.0"?>
<VTKFile type="UnstructuredGrid"  version="0.1"  >
<UnstructuredGrid>
<Piece  NumberOfPoints="32" NumberOfCells="44">
<Points>
<DataArray  type="Float64"  NumberOfComponents="3"  format="ascii">0.025 0.05625 0  0.025 0.04375 0  0.07500000000000001 0.04375 0  0.07500000000000001 0.05625 0  0 0.1 0  0 0 0  0.1 0 0  0.1 0.1 0  0 0.05 0  0.1 0.05 0  0.05 0 0  0.05 0.1 0  0.05 0.04375 0  0.05 0.05625 0  0.0625 0.078125 0  0.07500000000000001 0 0  0.0625 0.021875 0  0.025 0.1 0  0 0.07500000000000001 0  0.025 0 0  0 0.025 0  0.1 0.07500000000000001 0  0.1 0.025 0  0.07500000000000001 0.1 0  0.03736979166666667 0.078125 0  0.021875 0.02187500000000001 0  0.0421875 0.01897321428571428 0  0.08167613636363637 0.01832386363636364 0  0.0810546875 0.07421875 0  0.01888735142371996 0.07414146856495994 0  0 0.08750000000000001 0  0.1 0.08750000000000001 0  </DataArray>
</Points>
<Cells>
<DataArray  type="UInt32"  Name="connectivity"  format="ascii">2 9 22  0 12 13  0 1 8  2 3 9  2 12 16  3 13 14  0 24 29  0 1 12  2 12 13  2 3 13  11 14 23  2 22 27  10 15 16  12 16 26  19 25 26  11 14 24  11 17 24  17 24 29  18 29 30  5 19 25  5 20 25  1 20 25  1 8 20  3 9 28  9 21 28  6 15 27  6 22 27  7 23 31  0 13 24  13 14 24  1 12 26  1 25 26  10 19 26  10 16 26  2 16 27  15 16 27  14 23 28  3 14 28  8 18 29  0 8 29  17 29 30  4 17 30  23 28 31  21 28 31  </DataArray>
<DataArray  type="UInt32"  Name="offsets"  format="ascii">3 6 9 12 15 18 21 24 27 30 33 36 39 42 45 48 51 54 57 60 63 66 69 72 75 78 81 84 87 90 93 96 99 102 105 108 111 114 117 120 123 126 129 132 </DataArray>
<DataArray  type="UInt8"  Name="types"  format="ascii">5 5 5 5 5 5 5 5 5 5 5 5 5 5 5 5 5 5 5 5 5 5 5 5 5 5 5 5 5 5 5 5 5 5 5 5 5 5 5 5 5 5 5 5 </DataArray>
</Cells>
<PointData  Tensors="f_74"> 
<DataArray  type="Float64"  Name="f_74"  NumberOfComponents="9" format="ascii">1.4725034378691638e+08 -1.1292323948961424e+07 0.0000000000000000e+00 -1.1292323948961424e+07 5.7839109053477077e+06 0.0000000000000000e+00 0.0000000000000000e+00 0.0000000000000000e+00 0.0000000000000000e+00  7.8551690569259346e+07 1.2026412218930352e+07 0.0000000000000000e+00 1.2026412218930352e+07 8.6229144116893206e+06 0.0000000000000000e+00 0.0000000000000000e+00 0.0000000000000000e+00 0.0000000000000000e+00  1.2319754083451267e+08 -1.0098277978604209e+07 0.0000000000000000e+00 -1.0098277978604209e+07 1.1717305192640403e+07 0.0000000000000000e+00 0.0000000000000000e+00 0.0000000000000000e+00 0.0000000000000000e+00  9.3386586153691620e+07 1.2081700135970153e+07 0.0000000000000000e+00 1.2081700135970153e+07 3.1320556552854478e+06 0.0000000000000000e+00 0.0000000000000000e+00 0.0000000000000000e+00 0.0000000000000000e+00  3.5204970930875130e+07 2.0615583913886365e+06 0.0000000000000000e+00 2.0615583913886365e+06 3.8213496535435701e+06 0.0000000000000000e+00 0.0000000000000000e+00 0.0000000000000000e+00 0.0000000000000000e+00  4.1349552650687352e+07 -1.8297805996710304e+06 0.0000000000000000e+00 -1.8297805996710304e+06 9.2629163172437772e+06 0.0000000000000000e+00 0.0000000000000000e+00 0.0000000000000000e+00 0.0000000000000000e+00  4.2676896910900660e+07 2.7194245917537971e+06 0.0000000000000000e+00 2.7194245917537971e+06 8.9474612233740129e+06 0.0000000000000000e+00 0.0000000000000000e+00 0.0000000000000000e+00 0.0000000000000000e+00  3.8283390466695577e+07 -2.0446358175629212e+06 0.0000000000000000e+00 -2.0446358175629212e+06 4.0507851518336544e+06 0.0000000000000000e+00 0.0000000000000000e+00 0.0000000000000000e+00 0.0000000000000000e+00  7.6514158713946268e+07 -5.9885063505607797e+06 0.0000000000000000e+00 -5.9885063505607797e+06 1.5536223102774438e+07 0.0000000000000000e+00 0.0000000000000000e+00 0.0000000000000000e+00 0.0000000000000000e+00  7.7269245016544074e+07 5.1384647076086486e+06 0.0000000000000000e+00 5.1384647076086486e+06 1.5256368186931062e+07 0.0000000000000000e+00 0.0000000000000000e+00 0.0000000000000000e+00 0.0000000000000000e+00  6.5050321600814112e+07 -1.2614531919191084e+06 0.0000000000000000e+00 -1.2614531919191084e+06 -4.1162344498355030e+06 0.0000000000000000e+00 0.0000000000000000e+00 0.0000000000000000e+00 0.0000000000000000e+00  6.6796730704606801e+07 1.4223516592184603e+05 0.0000000000000000e+00 1.4223516592184603e+05 -3.5499059736787737e+06 0.0000000000000000e+00 0.0000000000000000e+00 0.0000000000000000e+00 0.0000000000000000e+00  1.5038082894237623e+08 2.1839529786581360e+05 0.0000000000000000e+00 2.1839529786581360e+05 1.0963577746284138e+07 0.0000000000000000e+00 0.0000000000000000e+00 0.0000000000000000e+00 0.0000000000000000e+00  1.4649172877680901e+08 8.6762675956292683e+05 0.0000000000000000e+00 8.6762675956292683e+05 9.7284560579041410e+06 0.0000000000000000e+00 0.0000000000000000e+00 0.0000000000000000e+00 0.0000000000000000e+00  -4.3201749046244370e+06 4.1478900939261755e+06 0.0000000000000000e+00 4.1478900939261755e+06 4.0101989129549405e+06 0.0000000000000000e+00 0.0000000000000000e+00 0.0000000000000000e+00 0.0000000000000000e+00  5.7198039006982706e+07 1.9983856959939832e+06 0.0000000000000000e+00 1.9983856959939832e+06 5.6443494649575772e+06 0.0000000000000000e+00 0.0000000000000000e+00 0.0000000000000000e+00 0.0000000000000000e+00  -1.1813395778532473e+07 -5.3168301445967779e+06 0.0000000000000000e+00 -5.3168301445967779e+06 6.4790169346473692e+06 0.0000000000000000e+00 0.0000000000000000e+00 0.0000000000000000e+00 0.0000000000000000e+00  5.1230569624753401e+07 5.7857782501928147e+05 0.0000000000000000e+00 5.7857782501928147e+05 8.4612060979134887e+06 0.0000000000000000e+00 0.0000000000000000e+00 0.0000000000000000e+00 0.0000000000000000e+00  5.0895874199364357e+07 1.1361536575666114e+06 0.0000000000000000e+00 1.1361536575666114e+06 7.2215448809797056e+06 0.0000000000000000e+00 0.0000000000000000e+00 0.0000000000000000e+00 0.0000000000000000e+00  4.9385989862156920e+07 -1.4782806630692072e+06 0.0000000000000000e+00 -1.4782806630692072e+06 6.4200119991887351e+06 0.0000000000000000e+00 0.0000000000000000e+00 0.0000000000000000e+00 0.0000000000000000e+00  6.7910749372823000e+07 5.2200842387949331e+06 0.0000000000000000e+00 5.2200842387949331e+06 1.2436808239731818e+07 0.0000000000000000e+00 0.0000000000000000e+00 0.0000000000000000e+00 0.0000000000000000e+00  4.6241118828895308e+07 -9.7959921759840450e+05 0.0000000000000000e+00 -9.7959921759840450e+05 7.1620759619263941e+06 0.0000000000000000e+00 0.0000000000000000e+00 0.0000000000000000e+00 0.0000000000000000e+00  5.4205324794826567e+07 -5.6209255350713786e+06 0.0000000000000000e+00 -5.6209255350713786e+06 1.1904695447599677e+07 0.0000000000000000e+00 0.0000000000000000e+00 0.0000000000000000e+00 0.0000000000000000e+00  4.6355745084676564e+07 -4.9481743848537578e+05 0.0000000000000000e+00 -4.9481743848537578e+05 8.1605516956044929e+06 0.0000000000000000e+00 0.0000000000000000e+00 0.0000000000000000e+00 0.0000000000000000e+00  -1.3725966258757487e+07 -4.5033516665669782e+06 0.0000000000000000e+00 -4.5033516665669782e+06 3.7087374509513355e+06 0.0000000000000000e+00 0.0000000000000000e+00 0.0000000000000000e+00 0.0000000000000000e+00  4.3750307927355468e+07 9.8266499420078471e+06 0.0000000000000000e+00 9.8266499420078471e+06 8.6714256050691903e+06 0.0000000000000000e+00 0.0000000000000000e+00 0.0000000000000000e+00 0.0000000000000000e+00  -6.4416719400702510e+06 3.8231289961671326e+06 0.0000000000000000e+00 3.8231289961671326e+06 5.9514137599137854e+06 0.0000000000000000e+00 0.0000000000000000e+00 0.0000000000000000e+00 0.0000000000000000e+00  3.7416658189860053e+07 -8.9119538638157994e+06 0.0000000000000000e+00 -8.9119538638157994e+06 8.7143983019822761e+06 0.0000000000000000e+00 0.0000000000000000e+00 0.0000000000000000e+00 0.0000000000000000e+00  5.8872897420639582e+07 6.2692753504672218e+06 0.0000000000000000e+00 6.2692753504672218e+06 9.4951355934589356e+06 0.0000000000000000e+00 0.0000000000000000e+00 0.0000000000000000e+00 0.0000000000000000e+00  4.9956725165718526e+07 -6.2770826356973257e+06 0.0000000000000000e+00 -6.2770826356973257e+06 9.1928805575478878e+06 0.0000000000000000e+00 0.0000000000000000e+00 0.0000000000000000e+00 0.0000000000000000e+00  4.7303587892378420e+07 -4.7016946077965563e+06 0.0000000000000000e+00 -4.7016946077965563e+06 1.3709759191272669e+07 0.0000000000000000e+00 0.0000000000000000e+00 0.0000000000000000e+00 0.0000000000000000e+00  4.6021573360814340e+07 4.5840890736112194e+06 0.0000000000000000e+00 4.5840890736112194e+06 1.3551542597001506e+07 0.0000000000000000e+00 0.0000000000000000e+00 0.0000000000000000e+00 0.0000000000000000e+00  </DataArray> 
</PointData> 
</Piece>
</UnstructuredGrid>
</VTKFile>