<?xml version="1.0"?>
<VTKFile type="UnstructuredGrid"  version="0.1"  >
<UnstructuredGrid>
<Piece  NumberOfPoints="34" NumberOfCells="50">
<Points>
<DataArray  type="Float64"  NumberOfComponents="3"  format="ascii">0.025 0.0625 0  0.025 0.03750000000000001 0  0.07500000000000001 0.03750000000000001 0  0.07500000000000001 0.0625 0  0 0.1 0  0 0 0  0.1 0 0  0.1 0.1 0  0.05 0 0  0.05 0.1 0  0 0.05 0  0.1 0.05 0  0.05 0.03750000000000001 0  0.05 0.0625 0  0.1 0.025 0  0 0.07500000000000001 0  0 0.025 0  0.025 0.1 0  0.025 0 0  0.07500000000000001 0.1 0  0.07500000000000001 0 0  0.1 0.07500000000000001 0  0.0625 0.08125 0  0.0625 0.01875 0  0.03750000000000001 0.01875000000000001 0  0.03750000000000001 0.08125 0  0.081875 0.018125 0  0.018359375 0.01953125 0  0.08164062499999999 0.08046875000000001 0  0.018125 0.081875 0  0.0625 0.0625 0  0.0625 0.03750000000000001 0  0.03750000000000001 0.0625 0  0.03750000000000001 0.03750000000000001 0  </DataArray>
</Points>
<Cells>
<DataArray  type="UInt32"  Name="connectivity"  format="ascii">2 23 26  0 25 32  0 1 10  8 23 24  2 3 11  13 25 32  0 25 29  12 32 33  2 30 31  13 22 30  2 11 14  20 23 26  0 10 15  17 25 29  1 24 33  1 10 16  0 15 29  9 17 25  1 24 27  1 16 27  3 22 30  3 21 28  2 14 26  8 20 23  3 22 28  3 11 21  19 22 28  9 19 22  12 23 31  12 23 24  18 24 27  8 18 24  13 22 25  9 22 25  6 20 26  6 14 26  5 16 27  5 18 27  7 21 28  7 19 28  4 17 29  4 15 29  2 23 31  2 3 30  13 30 31  12 13 31  12 24 33  12 13 32  0 32 33  0 1 33  </DataArray>
<DataArray  type="UInt32"  Name="offsets"  format="ascii">3 6 9 12 15 18 21 24 27 30 33 36 39 42 45 48 51 54 57 60 63 66 69 72 75 78 81 84 87 90 93 96 99 102 105 108 111 114 117 120 123 126 129 132 135 138 141 144 147 150 </DataArray>
<DataArray  type="UInt8"  Name="types"  format="ascii">5 5 5 5 5 5 5 5 5 5 5 5 5 5 5 5 5 5 5 5 5 5 5 5 5 5 5 5 5 5 5 5 5 5 5 5 5 5 5 5 5 5 5 5 5 5 5 5 5 5 </DataArray>
</Cells>
<PointData  Tensors="f_74"> 
<DataArray  type="Float64"  Name="f_74"  NumberOfComponents="9" format="ascii">7.0805520294340012e+10 -5.3243186244266453e+09 0.0000000000000000e+00 -5.3243186244266453e+09 9.6999423000487099e+09 0.0000000000000000e+00 0.0000000000000000e+00 0.0000000000000000e+00 0.0000000000000000e+00  6.1746580505215027e+10 6.1308765831477861e+09 0.0000000000000000e+00 6.1308765831477861e+09 9.5531736386272774e+09 0.0000000000000000e+00 0.0000000000000000e+00 0.0000000000000000e+00 0.0000000000000000e+00  7.0805520294339783e+10 -5.3243186244266491e+09 0.0000000000000000e+00 -5.3243186244266491e+09 9.6999423000486889e+09 0.0000000000000000e+00 0.0000000000000000e+00 0.0000000000000000e+00 0.0000000000000000e+00  6.1746580505214882e+10 6.1308765831477747e+09 0.0000000000000000e+00 6.1308765831477747e+09 9.5531736386272640e+09 0.0000000000000000e+00 0.0000000000000000e+00 0.0000000000000000e+00 0.0000000000000000e+00  4.2066524004584183e+10 6.6399576555927467e+08 0.0000000000000000e+00 6.6399576555927467e+08 9.1314452782664394e+09 0.0000000000000000e+00 0.0000000000000000e+00 0.0000000000000000e+00 0.0000000000000000e+00  4.1633294715729836e+10 -3.7074747801673615e+08 0.0000000000000000e+00 -3.7074747801673615e+08 9.2617264916897717e+09 0.0000000000000000e+00 0.0000000000000000e+00 0.0000000000000000e+00 0.0000000000000000e+00  4.2066524004584175e+10 6.6399576555928051e+08 0.0000000000000000e+00 6.6399576555928051e+08 9.1314452782664185e+09 0.0000000000000000e+00 0.0000000000000000e+00 0.0000000000000000e+00 0.0000000000000000e+00  4.1633294715729828e+10 -3.7074747801672751e+08 0.0000000000000000e+00 -3.7074747801672751e+08 9.2617264916897736e+09 0.0000000000000000e+00 0.0000000000000000e+00 0.0000000000000000e+00 0.0000000000000000e+00  5.1989082933533134e+10 -2.5671343154687986e+07 0.0000000000000000e+00 -2.5671343154688083e+07 3.5659246140415583e+09 0.0000000000000000e+00 0.0000000000000000e+00 0.0000000000000000e+00 0.0000000000000000e+00  5.1989082933533127e+10 -2.5671343154732257e+07 0.0000000000000000e+00 -2.5671343154732291e+07 3.5659246140415750e+09 0.0000000000000000e+00 0.0000000000000000e+00 0.0000000000000000e+00 0.0000000000000000e+00  6.5102722962909134e+10 -2.6076481795317361e+08 0.0000000000000000e+00 -2.6076481795317361e+08 8.8666795624304295e+09 0.0000000000000000e+00 0.0000000000000000e+00 0.0000000000000000e+00 0.0000000000000000e+00  6.5102722962909103e+10 -2.6076481795315433e+08 0.0000000000000000e+00 -2.6076481795315441e+08 8.8666795624304352e+09 0.0000000000000000e+00 0.0000000000000000e+00 0.0000000000000000e+00 0.0000000000000000e+00  7.9111405843967819e+10 8.1798710212584305e+08 0.0000000000000000e+00 8.1798710212584305e+08 1.4723523027315517e+10 0.0000000000000000e+00 0.0000000000000000e+00 0.0000000000000000e+00 0.0000000000000000e+00  7.9111405843967804e+10 8.1798710212586045e+08 0.0000000000000000e+00 8.1798710212586033e+08 1.4723523027315548e+10 0.0000000000000000e+00 0.0000000000000000e+00 0.0000000000000000e+00 0.0000000000000000e+00  5.5175858866222260e+10 -3.3491722930172434e+09 0.0000000000000000e+00 -3.3491722930172434e+09 1.0484812667382742e+10 0.0000000000000000e+00 0.0000000000000000e+00 0.0000000000000000e+00 0.0000000000000000e+00  5.5175858866222389e+10 -3.3491722930172768e+09 0.0000000000000000e+00 -3.3491722930172768e+09 1.0484812667382772e+10 0.0000000000000000e+00 0.0000000000000000e+00 0.0000000000000000e+00 0.0000000000000000e+00  5.8382472176307892e+10 3.2132038216316996e+09 0.0000000000000000e+00 3.2132038216316996e+09 1.0521908569894659e+10 0.0000000000000000e+00 0.0000000000000000e+00 0.0000000000000000e+00 0.0000000000000000e+00  4.7336251254837326e+10 6.9866879458666551e+08 0.0000000000000000e+00 6.9866879458666551e+08 9.0134785805340328e+09 0.0000000000000000e+00 0.0000000000000000e+00 0.0000000000000000e+00 0.0000000000000000e+00  4.6168722269507370e+10 -4.8653037448795420e+08 0.0000000000000000e+00 -4.8653037448795420e+08 9.0624347094982376e+09 0.0000000000000000e+00 0.0000000000000000e+00 0.0000000000000000e+00 0.0000000000000000e+00  4.6168722269507339e+10 -4.8653037448797661e+08 0.0000000000000000e+00 -4.8653037448797649e+08 9.0624347094982548e+09 0.0000000000000000e+00 0.0000000000000000e+00 0.0000000000000000e+00 0.0000000000000000e+00  4.7336251254837280e+10 6.9866879458672369e+08 0.0000000000000000e+00 6.9866879458672369e+08 9.0134785805339718e+09 0.0000000000000000e+00 0.0000000000000000e+00 0.0000000000000000e+00 0.0000000000000000e+00  5.8382472176307884e+10 3.2132038216317210e+09 0.0000000000000000e+00 3.2132038216317210e+09 1.0521908569894653e+10 0.0000000000000000e+00 0.0000000000000000e+00 0.0000000000000000e+00 0.0000000000000000e+00  2.0201432059377541e+10 3.4892022675295949e+09 0.0000000000000000e+00 3.4892022675295949e+09 7.8648050472813301e+09 0.0000000000000000e+00 0.0000000000000000e+00 0.0000000000000000e+00 0.0000000000000000e+00  1.9087338181860313e+10 -3.7610264712015285e+09 0.0000000000000000e+00 -3.7610264712015285e+09 7.9097973480711813e+09 0.0000000000000000e+00 0.0000000000000000e+00 0.0000000000000000e+00 0.0000000000000000e+00  2.0201432059377579e+10 3.4892022675296192e+09 0.0000000000000000e+00 3.4892022675296192e+09 7.8648050472812958e+09 0.0000000000000000e+00 0.0000000000000000e+00 0.0000000000000000e+00 0.0000000000000000e+00  1.9087338181860317e+10 -3.7610264712015686e+09 0.0000000000000000e+00 -3.7610264712015686e+09 7.9097973480712452e+09 0.0000000000000000e+00 0.0000000000000000e+00 0.0000000000000000e+00 0.0000000000000000e+00  4.3550505677236938e+10 -6.1518876052229671e+09 0.0000000000000000e+00 -6.1518876052229671e+09 9.3751128286423550e+09 0.0000000000000000e+00 0.0000000000000000e+00 0.0000000000000000e+00 0.0000000000000000e+00  4.4914655810533165e+10 6.1546705571766930e+09 0.0000000000000000e+00 6.1546705571766930e+09 9.3947383210805893e+09 0.0000000000000000e+00 0.0000000000000000e+00 0.0000000000000000e+00 0.0000000000000000e+00  4.4914655810533173e+10 6.1546705571766939e+09 0.0000000000000000e+00 6.1546705571766939e+09 9.3947383210806007e+09 0.0000000000000000e+00 0.0000000000000000e+00 0.0000000000000000e+00 0.0000000000000000e+00  4.3550505677236984e+10 -6.1518876052229958e+09 0.0000000000000000e+00 -6.1518876052229958e+09 9.3751128286423931e+09 0.0000000000000000e+00 0.0000000000000000e+00 0.0000000000000000e+00 0.0000000000000000e+00  9.3280932931280319e+10 2.5305950637545428e+09 0.0000000000000000e+00 2.5305950637545424e+09 1.2832528913131542e+10 0.0000000000000000e+00 0.0000000000000000e+00 0.0000000000000000e+00 0.0000000000000000e+00  9.1332615873690247e+10 -2.9118262036072531e+09 0.0000000000000000e+00 -2.9118262036072531e+09 1.1992679313049330e+10 0.0000000000000000e+00 0.0000000000000000e+00 0.0000000000000000e+00 0.0000000000000000e+00  9.1332615873690430e+10 -2.9118262036072941e+09 0.0000000000000000e+00 -2.9118262036072941e+09 1.1992679313049400e+10 0.0000000000000000e+00 0.0000000000000000e+00 0.0000000000000000e+00 0.0000000000000000e+00  9.3280932931280792e+10 2.5305950637545466e+09 0.0000000000000000e+00 2.5305950637545466e+09 1.2832528913131594e+10 0.0000000000000000e+00 0.0000000000000000e+00 0.0000000000000000e+00 0.0000000000000000e+00  </DataArray> 
</PointData> 
</Piece>
</UnstructuredGrid>
</VTKFile>