<?xml version="1.0"?>
<VTKFile type="UnstructuredGrid"  version="0.1"  >
<UnstructuredGrid>
<Piece  NumberOfPoints="34" NumberOfCells="50">
<Points>
<DataArray  type="Float64"  NumberOfComponents="3"  format="ascii">0.025 0.0625 0  0.025 0.03750000000000001 0  0.07500000000000001 0.03750000000000001 0  0.07500000000000001 0.0625 0  0 0.1 0  0 0 0  0.1 0 0  0.1 0.1 0  0.05 0 0  0.05 0.1 0  0 0.05 0  0.1 0.05 0  0.05 0.03750000000000001 0  0.05 0.0625 0  0.1 0.025 0  0 0.07500000000000001 0  0 0.025 0  0.025 0.1 0  0.025 0 0  0.07500000000000001 0.1 0  0.07500000000000001 0 0  0.1 0.07500000000000001 0  0.0625 0.08125 0  0.0625 0.01875 0  0.03750000000000001 0.01875000000000001 0  0.03750000000000001 0.08125 0  0.081875 0.018125 0  0.018359375 0.01953125 0  0.08164062499999999 0.08046875000000001 0  0.018125 0.081875 0  0.0625 0.0625 0  0.0625 0.03750000000000001 0  0.03750000000000001 0.0625 0  0.03750000000000001 0.03750000000000001 0  </DataArray>
</Points>
<Cells>
<DataArray  type="UInt32"  Name="connectivity"  format="ascii">2 23 26  0 25 32  0 1 10  8 23 24  2 3 11  13 25 32  0 25 29  12 32 33  2 30 31  13 22 30  2 11 14  20 23 26  0 10 15  17 25 29  1 24 33  1 10 16  0 15 29  9 17 25  1 24 27  1 16 27  3 22 30  3 21 28  2 14 26  8 20 23  3 22 28  3 11 21  19 22 28  9 19 22  12 23 31  12 23 24  18 24 27  8 18 24  13 22 25  9 22 25  6 20 26  6 14 26  5 16 27  5 18 27  7 21 28  7 19 28  4 17 29  4 15 29  2 23 31  2 3 30  13 30 31  12 13 31  12 24 33  12 13 32  0 32 33  0 1 33  </DataArray>
<DataArray  type="UInt32"  Name="offsets"  format="ascii">3 6 9 12 15 18 21 24 27 30 33 36 39 42 45 48 51 54 57 60 63 66 69 72 75 78 81 84 87 90 93 96 99 102 105 108 111 114 117 120 123 126 129 132 135 138 141 144 147 150 </DataArray>
<DataArray  type="UInt8"  Name="types"  format="ascii">5 5 5 5 5 5 5 5 5 5 5 5 5 5 5 5 5 5 5 5 5 5 5 5 5 5 5 5 5 5 5 5 5 5 5 5 5 5 5 5 5 5 5 5 5 5 5 5 5 5 </DataArray>
</Cells>
<PointData  Tensors="f_108"> 
<DataArray  type="Float64"  Name="f_108"  NumberOfComponents="9" format="ascii">-5.1777005921972065e+09 2.0507300586010731e+10 0.0000000000000000e+00 2.0507300586010731e+10 -3.9569266385794535e+09 0.0000000000000000e+00 0.0000000000000000e+00 0.0000000000000000e+00 0.0000000000000000e+00  8.9879077846299953e+09 1.9239659958584419e+10 0.0000000000000000e+00 1.9239659958584419e+10 4.1066091246560111e+09 0.0000000000000000e+00 0.0000000000000000e+00 0.0000000000000000e+00 0.0000000000000000e+00  -5.1777005921971846e+09 2.0507300586010715e+10 0.0000000000000000e+00 2.0507300586010715e+10 -3.9569266385794568e+09 0.0000000000000000e+00 0.0000000000000000e+00 0.0000000000000000e+00 0.0000000000000000e+00  8.9879077846299152e+09 1.9239659958584400e+10 0.0000000000000000e+00 1.9239659958584400e+10 4.1066091246559935e+09 0.0000000000000000e+00 0.0000000000000000e+00 0.0000000000000000e+00 0.0000000000000000e+00  -3.2759221779025865e+08 1.7558625130482094e+10 0.0000000000000000e+00 1.7558625130482094e+10 -1.0555289682465925e+09 0.0000000000000000e+00 0.0000000000000000e+00 0.0000000000000000e+00 0.0000000000000000e+00  1.1395897610773749e+09 1.7583952723925457e+10 0.0000000000000000e+00 1.7583952723925457e+10 1.1280580573834743e+09 0.0000000000000000e+00 0.0000000000000000e+00 0.0000000000000000e+00 0.0000000000000000e+00  -3.2759221779028285e+08 1.7558625130482098e+10 0.0000000000000000e+00 1.7558625130482101e+10 -1.0555289682465987e+09 0.0000000000000000e+00 0.0000000000000000e+00 0.0000000000000000e+00 0.0000000000000000e+00  1.1395897610773959e+09 1.7583952723925446e+10 0.0000000000000000e+00 1.7583952723925446e+10 1.1280580573834686e+09 0.0000000000000000e+00 0.0000000000000000e+00 0.0000000000000000e+00 0.0000000000000000e+00  8.0140365263718694e+07 1.8997948204088348e+10 0.0000000000000000e+00 1.8997948204088345e+10 4.6809984975363754e+07 0.0000000000000000e+00 0.0000000000000000e+00 0.0000000000000000e+00 0.0000000000000000e+00  8.0140365263747230e+07 1.8997948204088345e+10 0.0000000000000000e+00 1.8997948204088345e+10 4.6809984975365549e+07 0.0000000000000000e+00 0.0000000000000000e+00 0.0000000000000000e+00 0.0000000000000000e+00  -1.1860918978651109e+09 1.5462578990767887e+10 0.0000000000000000e+00 1.5462578990767887e+10 -4.7960501254315352e+08 0.0000000000000000e+00 0.0000000000000000e+00 0.0000000000000000e+00 0.0000000000000000e+00  -1.1860918978651087e+09 1.5462578990767910e+10 0.0000000000000000e+00 1.5462578990767908e+10 -4.7960501254315162e+08 0.0000000000000000e+00 0.0000000000000000e+00 0.0000000000000000e+00 0.0000000000000000e+00  2.6777475042658353e+08 2.5448779253098766e+10 0.0000000000000000e+00 2.5448779253098763e+10 1.2293145934512455e+09 0.0000000000000000e+00 0.0000000000000000e+00 0.0000000000000000e+00 0.0000000000000000e+00  2.6777475042657641e+08 2.5448779253098774e+10 0.0000000000000000e+00 2.5448779253098778e+10 1.2293145934512379e+09 0.0000000000000000e+00 0.0000000000000000e+00 0.0000000000000000e+00 0.0000000000000000e+00  -9.9153095373138885e+09 2.2092061835322788e+10 0.0000000000000000e+00 2.2092061835322792e+10 -1.0412635711198946e+09 0.0000000000000000e+00 0.0000000000000000e+00 0.0000000000000000e+00 0.0000000000000000e+00  -9.9153095373138351e+09 2.2092061835322796e+10 0.0000000000000000e+00 2.2092061835322796e+10 -1.0412635711198847e+09 0.0000000000000000e+00 0.0000000000000000e+00 0.0000000000000000e+00 0.0000000000000000e+00  9.4689328732532825e+09 2.2922396928165947e+10 0.0000000000000000e+00 2.2922396928165947e+10 1.2070640064502721e+09 0.0000000000000000e+00 0.0000000000000000e+00 0.0000000000000000e+00 0.0000000000000000e+00  -8.6569058810363042e+08 1.8607434961822231e+10 0.0000000000000000e+00 1.8607434961822231e+10 -3.9440836538105288e+09 0.0000000000000000e+00 0.0000000000000000e+00 0.0000000000000000e+00 0.0000000000000000e+00  7.9590679410543859e+08 1.8502088150725647e+10 0.0000000000000000e+00 1.8502088150725647e+10 4.1455196857117505e+09 0.0000000000000000e+00 0.0000000000000000e+00 0.0000000000000000e+00 0.0000000000000000e+00  7.9590679410541391e+08 1.8502088150725670e+10 0.0000000000000000e+00 1.8502088150725670e+10 4.1455196857117534e+09 0.0000000000000000e+00 0.0000000000000000e+00 0.0000000000000000e+00 0.0000000000000000e+00  -8.6569058810361719e+08 1.8607434961822239e+10 0.0000000000000000e+00 1.8607434961822243e+10 -3.9440836538105321e+09 0.0000000000000000e+00 0.0000000000000000e+00 0.0000000000000000e+00 0.0000000000000000e+00  9.4689328732533360e+09 2.2922396928165947e+10 0.0000000000000000e+00 2.2922396928165947e+10 1.2070640064502926e+09 0.0000000000000000e+00 0.0000000000000000e+00 0.0000000000000000e+00 0.0000000000000000e+00  -3.3117375254479939e+08 1.6893464118291676e+10 0.0000000000000000e+00 1.6893464118291676e+10 2.7970418743111010e+09 0.0000000000000000e+00 0.0000000000000000e+00 0.0000000000000000e+00 0.0000000000000000e+00  2.5501067437093645e+08 1.7076937939476112e+10 0.0000000000000000e+00 1.7076937939476116e+10 -3.3107332718739090e+09 0.0000000000000000e+00 0.0000000000000000e+00 0.0000000000000000e+00 0.0000000000000000e+00  -3.3117375254478359e+08 1.6893464118291681e+10 0.0000000000000000e+00 1.6893464118291679e+10 2.7970418743110976e+09 0.0000000000000000e+00 0.0000000000000000e+00 0.0000000000000000e+00 0.0000000000000000e+00  2.5501067437093255e+08 1.7076937939476114e+10 0.0000000000000000e+00 1.7076937939476114e+10 -3.3107332718739090e+09 0.0000000000000000e+00 0.0000000000000000e+00 0.0000000000000000e+00 0.0000000000000000e+00  -1.5545537849988928e+09 2.0015620300475433e+10 0.0000000000000000e+00 2.0015620300475422e+10 -4.7028917926327639e+09 0.0000000000000000e+00 0.0000000000000000e+00 0.0000000000000000e+00 0.0000000000000000e+00  9.6250819896051455e+08 2.0216366424197323e+10 0.0000000000000000e+00 2.0216366424197323e+10 5.2477112075437994e+09 0.0000000000000000e+00 0.0000000000000000e+00 0.0000000000000000e+00 0.0000000000000000e+00  9.6250819896050715e+08 2.0216366424197342e+10 0.0000000000000000e+00 2.0216366424197342e+10 5.2477112075438232e+09 0.0000000000000000e+00 0.0000000000000000e+00 0.0000000000000000e+00 0.0000000000000000e+00  -1.5545537849988871e+09 2.0015620300475410e+10 0.0000000000000000e+00 2.0015620300475410e+10 -4.7028917926327477e+09 0.0000000000000000e+00 0.0000000000000000e+00 0.0000000000000000e+00 0.0000000000000000e+00  3.6361538014403925e+09 2.7875461241977638e+10 0.0000000000000000e+00 2.7875461241977634e+10 1.5568567425310600e+09 0.0000000000000000e+00 0.0000000000000000e+00 0.0000000000000000e+00 0.0000000000000000e+00  -6.8097287782370863e+09 2.6808482081665245e+10 0.0000000000000000e+00 2.6808482081665253e+10 -1.2050565318918858e+09 0.0000000000000000e+00 0.0000000000000000e+00 0.0000000000000000e+00 0.0000000000000000e+00  -6.8097287782370167e+09 2.6808482081665272e+10 0.0000000000000000e+00 2.6808482081665268e+10 -1.2050565318918495e+09 0.0000000000000000e+00 0.0000000000000000e+00 0.0000000000000000e+00 0.0000000000000000e+00  3.6361538014404116e+09 2.7875461241977711e+10 0.0000000000000000e+00 2.7875461241977715e+10 1.5568567425310643e+09 0.0000000000000000e+00 0.0000000000000000e+00 0.0000000000000000e+00 0.0000000000000000e+00  </DataArray> 
</PointData> 
</Piece>
</UnstructuredGrid>
</VTKFile>