<?xml version="1.0"?>
<VTKFile type="UnstructuredGrid"  version="0.1"  >
<UnstructuredGrid>
<Piece  NumberOfPoints="32" NumberOfCells="44">
<Points>
<DataArray  type="Float64"  NumberOfComponents="3"  format="ascii">0.025 0.05625 0  0.025 0.04375 0  0.07500000000000001 0.04375 0  0.07500000000000001 0.05625 0  0 0.1 0  0 0 0  0.1 0 0  0.1 0.1 0  0 0.05 0  0.1 0.05 0  0.05 0 0  0.05 0.1 0  0.05 0.04375 0  0.05 0.05625 0  0.0625 0.078125 0  0.07500000000000001 0 0  0.0625 0.021875 0  0.025 0.1 0  0 0.07500000000000001 0  0.025 0 0  0 0.025 0  0.1 0.07500000000000001 0  0.1 0.025 0  0.07500000000000001 0.1 0  0.03736979166666667 0.078125 0  0.021875 0.02187500000000001 0  0.0421875 0.01897321428571428 0  0.08167613636363637 0.01832386363636364 0  0.0810546875 0.07421875 0  0.01888735142371996 0.07414146856495994 0  0 0.08750000000000001 0  0.1 0.08750000000000001 0  </DataArray>
</Points>
<Cells>
<DataArray  type="UInt32"  Name="connectivity"  format="ascii">2 9 22  0 12 13  0 1 8  2 3 9  2 12 16  3 13 14  0 24 29  0 1 12  2 12 13  2 3 13  11 14 23  2 22 27  10 15 16  12 16 26  19 25 26  11 14 24  11 17 24  17 24 29  18 29 30  5 19 25  5 20 25  1 20 25  1 8 20  3 9 28  9 21 28  6 15 27  6 22 27  7 23 31  0 13 24  13 14 24  1 12 26  1 25 26  10 19 26  10 16 26  2 16 27  15 16 27  14 23 28  3 14 28  8 18 29  0 8 29  17 29 30  4 17 30  23 28 31  21 28 31  </DataArray>
<DataArray  type="UInt32"  Name="offsets"  format="ascii">3 6 9 12 15 18 21 24 27 30 33 36 39 42 45 48 51 54 57 60 63 66 69 72 75 78 81 84 87 90 93 96 99 102 105 108 111 114 117 120 123 126 129 132 </DataArray>
<DataArray  type="UInt8"  Name="types"  format="ascii">5 5 5 5 5 5 5 5 5 5 5 5 5 5 5 5 5 5 5 5 5 5 5 5 5 5 5 5 5 5 5 5 5 5 5 5 5 5 5 5 5 5 5 5 </DataArray>
</Cells>
<PointData  Tensors="f_108"> 
<DataArray  type="Float64"  Name="f_108"  NumberOfComponents="9" format="ascii">-3.9045452575895600e+06 2.2158225329429030e+07 0.0000000000000000e+00 2.2158225329429030e+07 -3.2116210379768559e+06 0.0000000000000000e+00 0.0000000000000000e+00 0.0000000000000000e+00 0.0000000000000000e+00  8.2012754538924051e+06 2.0988963949130811e+07 0.0000000000000000e+00 2.0988963949130811e+07 1.9062798886409516e+06 0.0000000000000000e+00 0.0000000000000000e+00 0.0000000000000000e+00 0.0000000000000000e+00  -4.0461571262751170e+06 2.1398056871776734e+07 0.0000000000000000e+00 2.1398056871776741e+07 -3.0990233822797886e+06 0.0000000000000000e+00 0.0000000000000000e+00 0.0000000000000000e+00 0.0000000000000000e+00  9.6940128001380637e+06 2.1586723310033828e+07 0.0000000000000000e+00 2.1586723310033821e+07 1.9124595595206604e+06 0.0000000000000000e+00 0.0000000000000000e+00 0.0000000000000000e+00 0.0000000000000000e+00  8.4492489017960744e+05 1.6355709225731265e+07 0.0000000000000000e+00 1.6355709225731265e+07 2.5399293489101459e+06 0.0000000000000000e+00 0.0000000000000000e+00 0.0000000000000000e+00 0.0000000000000000e+00  9.1860117357171641e+05 1.7456831874864358e+07 0.0000000000000000e+00 1.7456831874864358e+07 4.1542099264901108e+05 0.0000000000000000e+00 0.0000000000000000e+00 0.0000000000000000e+00 0.0000000000000000e+00  6.9092291156359774e+05 1.7126360565131221e+07 0.0000000000000000e+00 1.7126360565131221e+07 -3.3608325363909238e+05 0.0000000000000000e+00 0.0000000000000000e+00 0.0000000000000000e+00 0.0000000000000000e+00  -1.0056290424612619e+06 1.6383706482524231e+07 0.0000000000000000e+00 1.6383706482524231e+07 -2.5223982631373000e+06 0.0000000000000000e+00 0.0000000000000000e+00 0.0000000000000000e+00 0.0000000000000000e+00  -1.8427936634081260e+06 1.4408712461937241e+07 0.0000000000000000e+00 1.4408712461937241e+07 -2.5785735370785670e+05 0.0000000000000000e+00 0.0000000000000000e+00 0.0000000000000000e+00 0.0000000000000000e+00  -1.1458574654502356e+05 1.4450684873558326e+07 0.0000000000000000e+00 1.4450684873558324e+07 7.7463825616068009e+05 0.0000000000000000e+00 0.0000000000000000e+00 0.0000000000000000e+00 0.0000000000000000e+00  1.2695027076243154e+05 1.8818902354162607e+07 0.0000000000000000e+00 1.8818902354162607e+07 -3.9756869013202318e+05 0.0000000000000000e+00 0.0000000000000000e+00 0.0000000000000000e+00 0.0000000000000000e+00  -1.0531466693489614e+05 1.9069301707168188e+07 0.0000000000000000e+00 1.9069301707168188e+07 1.2412338009608789e+05 0.0000000000000000e+00 0.0000000000000000e+00 0.0000000000000000e+00 0.0000000000000000e+00  -2.9244350462378529e+06 2.5086581150982253e+07 0.0000000000000000e+00 2.5086581150982253e+07 9.9700055379605747e+05 0.0000000000000000e+00 0.0000000000000000e+00 0.0000000000000000e+00 0.0000000000000000e+00  -2.8006703112315894e+06 2.5026773642102752e+07 0.0000000000000000e+00 2.5026773642102752e+07 1.5908074772578471e+06 0.0000000000000000e+00 0.0000000000000000e+00 0.0000000000000000e+00 0.0000000000000000e+00  -1.4140902985027300e+06 1.6557732978351679e+07 0.0000000000000000e+00 1.6557732978351679e+07 1.9787267546547549e+06 0.0000000000000000e+00 0.0000000000000000e+00 0.0000000000000000e+00 0.0000000000000000e+00  -1.3414474501602994e+06 1.8232259859180171e+07 0.0000000000000000e+00 1.8232259859180178e+07 -2.4707410454256386e+06 0.0000000000000000e+00 0.0000000000000000e+00 0.0000000000000000e+00 0.0000000000000000e+00  1.0261800809065741e+06 1.6987479829560492e+07 0.0000000000000000e+00 1.6987479829560492e+07 -2.3563700200065845e+06 0.0000000000000000e+00 0.0000000000000000e+00 0.0000000000000000e+00 0.0000000000000000e+00  -9.9401360879612097e+04 1.8317089333129000e+07 0.0000000000000000e+00 1.8317089333129000e+07 -2.6853685427150577e+06 0.0000000000000000e+00 0.0000000000000000e+00 0.0000000000000000e+00 0.0000000000000000e+00  -4.3337748124592798e+06 2.0021983955264498e+07 0.0000000000000000e+00 2.0021983955264498e+07 9.8513350400121463e+05 0.0000000000000000e+00 0.0000000000000000e+00 0.0000000000000000e+00 0.0000000000000000e+00  6.0946225247546530e+05 1.8184294085758146e+07 0.0000000000000000e+00 1.8184294085758146e+07 2.5921028457265883e+06 0.0000000000000000e+00 0.0000000000000000e+00 0.0000000000000000e+00 0.0000000000000000e+00  8.6479560492468514e+06 2.1378007509957790e+07 0.0000000000000000e+00 2.1378007509957790e+07 2.0175800686411110e+06 0.0000000000000000e+00 0.0000000000000000e+00 0.0000000000000000e+00 0.0000000000000000e+00  5.3501387454180634e+06 1.9957231378937196e+07 0.0000000000000000e+00 1.9957231378937196e+07 -1.2716670055779251e+06 0.0000000000000000e+00 0.0000000000000000e+00 0.0000000000000000e+00 0.0000000000000000e+00  -9.8422219653725550e+06 2.1284643670256503e+07 0.0000000000000000e+00 2.1284643670256503e+07 -1.7761403694614498e+06 0.0000000000000000e+00 0.0000000000000000e+00 0.0000000000000000e+00 0.0000000000000000e+00  2.7742184692476306e+05 1.8268796205120128e+07 0.0000000000000000e+00 1.8268796205120128e+07 2.7091858056097492e+06 0.0000000000000000e+00 0.0000000000000000e+00 0.0000000000000000e+00 0.0000000000000000e+00  1.6300370475438836e+06 1.6463511982668355e+07 0.0000000000000000e+00 1.6463511982668355e+07 -2.3685638938147528e+06 0.0000000000000000e+00 0.0000000000000000e+00 0.0000000000000000e+00 0.0000000000000000e+00  -2.6632455721531176e+04 1.9597917191258628e+07 0.0000000000000000e+00 1.9597917191258628e+07 3.9322213653521240e+06 0.0000000000000000e+00 0.0000000000000000e+00 0.0000000000000000e+00 0.0000000000000000e+00  -8.0059493047978811e+05 1.6695432154424140e+07 0.0000000000000000e+00 1.6695432154424140e+07 1.8169549457642352e+06 0.0000000000000000e+00 0.0000000000000000e+00 0.0000000000000000e+00 0.0000000000000000e+00  -7.8914524475564773e+05 1.9519069524686608e+07 0.0000000000000000e+00 1.9519069524686605e+07 -3.5339015940634510e+06 0.0000000000000000e+00 0.0000000000000000e+00 0.0000000000000000e+00 0.0000000000000000e+00  5.2070302591251479e+06 2.1220539212599352e+07 0.0000000000000000e+00 2.1220539212599356e+07 4.1440532469129232e+06 0.0000000000000000e+00 0.0000000000000000e+00 0.0000000000000000e+00 0.0000000000000000e+00  -6.0302507541332599e+06 2.1128866136404287e+07 0.0000000000000000e+00 2.1128866136404287e+07 -3.9042832430514069e+06 0.0000000000000000e+00 0.0000000000000000e+00 0.0000000000000000e+00 0.0000000000000000e+00  -1.5904484194795566e+06 1.8536709606712822e+07 0.0000000000000000e+00 1.8536709606712822e+07 -2.3944901551052290e+06 0.0000000000000000e+00 0.0000000000000000e+00 0.0000000000000000e+00 0.0000000000000000e+00  1.7338362379977615e+06 1.8529008221135780e+07 0.0000000000000000e+00 1.8529008221135780e+07 2.3356107206648537e+06 0.0000000000000000e+00 0.0000000000000000e+00 0.0000000000000000e+00 0.0000000000000000e+00  </DataArray> 
</PointData> 
</Piece>
</UnstructuredGrid>
</VTKFile>