<?xml version="1.0"?>
<VTKFile type="UnstructuredGrid"  version="0.1"  >
<UnstructuredGrid>
<Piece  NumberOfPoints="32" NumberOfCells="44">
<Points>
<DataArray  type="Float64"  NumberOfComponents="3"  format="ascii">0.025 0.05625 0  0.025 0.04375 0  0.07500000000000001 0.04375 0  0.07500000000000001 0.05625 0  0 0.1 0  0 0 0  0.1 0 0  0.1 0.1 0  0 0.05 0  0.1 0.05 0  0.05 0 0  0.05 0.1 0  0.05 0.04375 0  0.05 0.05625 0  0.0625 0.078125 0  0.07500000000000001 0 0  0.0625 0.021875 0  0.025 0.1 0  0 0.07500000000000001 0  0.025 0 0  0 0.025 0  0.1 0.07500000000000001 0  0.1 0.025 0  0.07500000000000001 0.1 0  0.03736979166666667 0.078125 0  0.021875 0.02187500000000001 0  0.0421875 0.01897321428571428 0  0.08167613636363637 0.01832386363636364 0  0.0810546875 0.07421875 0  0.01888735142371996 0.07414146856495994 0  0 0.08750000000000001 0  0.1 0.08750000000000001 0  </DataArray>
</Points>
<Cells>
<DataArray  type="UInt32"  Name="connectivity"  format="ascii">2 9 22  0 12 13  0 1 8  2 3 9  2 12 16  3 13 14  0 24 29  0 1 12  2 12 13  2 3 13  11 14 23  2 22 27  10 15 16  12 16 26  19 25 26  11 14 24  11 17 24  17 24 29  18 29 30  5 19 25  5 20 25  1 20 25  1 8 20  3 9 28  9 21 28  6 15 27  6 22 27  7 23 31  0 13 24  13 14 24  1 12 26  1 25 26  10 19 26  10 16 26  2 16 27  15 16 27  14 23 28  3 14 28  8 18 29  0 8 29  17 29 30  4 17 30  23 28 31  21 28 31  </DataArray>
<DataArray  type="UInt32"  Name="offsets"  format="ascii">3 6 9 12 15 18 21 24 27 30 33 36 39 42 45 48 51 54 57 60 63 66 69 72 75 78 81 84 87 90 93 96 99 102 105 108 111 114 117 120 123 126 129 132 </DataArray>
<DataArray  type="UInt8"  Name="types"  format="ascii">5 5 5 5 5 5 5 5 5 5 5 5 5 5 5 5 5 5 5 5 5 5 5 5 5 5 5 5 5 5 5 5 5 5 5 5 5 5 5 5 5 5 5 5 </DataArray>
</Cells>
<PointData  Tensors="f_142"> 
<DataArray  type="Float64"  Name="f_142"  NumberOfComponents="9" format="ascii">6.3374409820166966e+06 -1.6057859059159996e+06 0.0000000000000000e+00 -1.6057859059159996e+06 5.0255163488697074e+07 0.0000000000000000e+00 0.0000000000000000e+00 0.0000000000000000e+00 0.0000000000000000e+00  7.4224338693055604e+06 1.2572972467775878e+06 0.0000000000000000e+00 1.2572972467775878e+06 5.0482924329949379e+07 0.0000000000000000e+00 0.0000000000000000e+00 0.0000000000000000e+00 0.0000000000000000e+00  6.8281025242327182e+06 -1.9809864638995808e+06 0.0000000000000000e+00 -1.9809864638995808e+06 4.8083853882011943e+07 0.0000000000000000e+00 0.0000000000000000e+00 0.0000000000000000e+00 0.0000000000000000e+00  7.5142351284092925e+06 1.3814819930339640e+06 0.0000000000000000e+00 1.3814819930339640e+06 5.2741026877828702e+07 0.0000000000000000e+00 0.0000000000000000e+00 0.0000000000000000e+00 0.0000000000000000e+00  6.5944647961486829e+06 7.4327421830092662e+05 0.0000000000000000e+00 7.4327421830092662e+05 3.9805327889400728e+07 0.0000000000000000e+00 0.0000000000000000e+00 0.0000000000000000e+00 0.0000000000000000e+00  8.0319925554179782e+06 6.2450218722147425e+05 0.0000000000000000e+00 6.2450218722147425e+05 4.2482358233281821e+07 0.0000000000000000e+00 0.0000000000000000e+00 0.0000000000000000e+00 0.0000000000000000e+00  8.0541956497900700e+06 -4.3285047710399638e+05 0.0000000000000000e+00 -4.3285047710399638e+05 4.1866766425145812e+07 0.0000000000000000e+00 0.0000000000000000e+00 0.0000000000000000e+00 0.0000000000000000e+00  6.5387213179068137e+06 -7.4820780537117389e+05 0.0000000000000000e+00 -7.4820780537117389e+05 3.9671098109234333e+07 0.0000000000000000e+00 0.0000000000000000e+00 0.0000000000000000e+00 0.0000000000000000e+00  5.2652884560560910e+06 -2.4857883696748709e+05 0.0000000000000000e+00 -2.4857883696748709e+05 2.4391381573284805e+07 0.0000000000000000e+00 0.0000000000000000e+00 0.0000000000000000e+00 0.0000000000000000e+00  5.1172651652470231e+06 4.0848220347083523e+05 0.0000000000000000e+00 4.0848220347083523e+05 2.4426646526097395e+07 0.0000000000000000e+00 0.0000000000000000e+00 0.0000000000000000e+00 0.0000000000000000e+00  8.4782343066689353e+06 1.1448021257920904e+05 0.0000000000000000e+00 1.1448021257920904e+05 4.9119171054167226e+07 0.0000000000000000e+00 0.0000000000000000e+00 0.0000000000000000e+00 0.0000000000000000e+00  8.5559133676356934e+06 7.5725077279462013e+04 0.0000000000000000e+00 7.5725077279462013e+04 4.9939593619963534e+07 0.0000000000000000e+00 0.0000000000000000e+00 0.0000000000000000e+00 0.0000000000000000e+00  7.8800609911956005e+06 5.1496744834705535e+05 0.0000000000000000e+00 5.1496744834705535e+05 6.0114611644806057e+07 0.0000000000000000e+00 0.0000000000000000e+00 0.0000000000000000e+00 0.0000000000000000e+00  8.6284657657611761e+06 7.5520455667939107e+05 0.0000000000000000e+00 7.5520455667939107e+05 5.9963536392747827e+07 0.0000000000000000e+00 0.0000000000000000e+00 0.0000000000000000e+00 0.0000000000000000e+00  7.7362114786471650e+06 -4.1925316556309536e+05 0.0000000000000000e+00 -4.1925316556309536e+05 4.5603716306686185e+07 0.0000000000000000e+00 0.0000000000000000e+00 0.0000000000000000e+00 0.0000000000000000e+00  7.8653545205155220e+06 -6.3336674855593697e+05 0.0000000000000000e+00 -6.3336674855593697e+05 4.8072493842936732e+07 0.0000000000000000e+00 0.0000000000000000e+00 0.0000000000000000e+00 0.0000000000000000e+00  8.3704785224002320e+06 1.5585153524754918e+05 0.0000000000000000e+00 1.5585153524754918e+05 4.6332381982749783e+07 0.0000000000000000e+00 0.0000000000000000e+00 0.0000000000000000e+00 0.0000000000000000e+00  8.0267971933090305e+06 -5.9467416251565074e+05 0.0000000000000000e+00 -5.9467416251565074e+05 4.6505856497450173e+07 0.0000000000000000e+00 0.0000000000000000e+00 0.0000000000000000e+00 0.0000000000000000e+00  1.0142121133131923e+07 -2.8652984291702304e+06 0.0000000000000000e+00 -2.8652984291702304e+06 4.4592028463663302e+07 0.0000000000000000e+00 0.0000000000000000e+00 0.0000000000000000e+00 0.0000000000000000e+00  8.1058937437402494e+06 4.4058736811073893e+05 0.0000000000000000e+00 4.4058736811073893e+05 4.8682304824299589e+07 0.0000000000000000e+00 0.0000000000000000e+00 0.0000000000000000e+00 0.0000000000000000e+00  9.0487025905043911e+06 5.0029615642704060e+06 0.0000000000000000e+00 5.0029615642704060e+06 4.5114177999005154e+07 0.0000000000000000e+00 0.0000000000000000e+00 0.0000000000000000e+00 0.0000000000000000e+00  1.0255224082211355e+07 2.7606363935923302e+06 0.0000000000000000e+00 2.7606363935923302e+06 4.4798413136634357e+07 0.0000000000000000e+00 0.0000000000000000e+00 0.0000000000000000e+00 0.0000000000000000e+00  9.2749220656961761e+06 -4.9199822327453271e+06 0.0000000000000000e+00 -4.9199822327453271e+06 4.5922359716665544e+07 0.0000000000000000e+00 0.0000000000000000e+00 0.0000000000000000e+00 0.0000000000000000e+00  8.1314936521593137e+06 6.2899026754768484e+05 0.0000000000000000e+00 6.2899026754768484e+05 4.6726118088123307e+07 0.0000000000000000e+00 0.0000000000000000e+00 0.0000000000000000e+00 0.0000000000000000e+00  7.9452405589820081e+06 1.9241546616900212e+05 0.0000000000000000e+00 1.9241546616900212e+05 4.6073217456112072e+07 0.0000000000000000e+00 0.0000000000000000e+00 0.0000000000000000e+00 0.0000000000000000e+00  8.4654070952834189e+06 6.5017224630738469e+05 0.0000000000000000e+00 6.5017224630738469e+05 4.6990833114957333e+07 0.0000000000000000e+00 0.0000000000000000e+00 0.0000000000000000e+00 0.0000000000000000e+00  8.2435678021681448e+06 -2.6613873857949296e+05 0.0000000000000000e+00 -2.6613873857949296e+05 4.5548104851626292e+07 0.0000000000000000e+00 0.0000000000000000e+00 0.0000000000000000e+00 0.0000000000000000e+00  8.5169211235139612e+06 -6.4483546482046566e+05 0.0000000000000000e+00 -6.4483546482046566e+05 4.7080527656517148e+07 0.0000000000000000e+00 0.0000000000000000e+00 0.0000000000000000e+00 0.0000000000000000e+00  8.8197713070075735e+06 3.3046710367773203e+06 0.0000000000000000e+00 3.3046710367773203e+06 4.9793791569859505e+07 0.0000000000000000e+00 0.0000000000000000e+00 0.0000000000000000e+00 0.0000000000000000e+00  8.9951537891441062e+06 -3.2816055805262201e+06 0.0000000000000000e+00 -3.2816055805262201e+06 5.0254183099872306e+07 0.0000000000000000e+00 0.0000000000000000e+00 0.0000000000000000e+00 0.0000000000000000e+00  8.5979378106668964e+06 -8.9187427408620319e+05 0.0000000000000000e+00 -8.9187427408620319e+05 4.2827587102630414e+07 0.0000000000000000e+00 0.0000000000000000e+00 0.0000000000000000e+00 0.0000000000000000e+00  8.6047283083003648e+06 8.6742534319462511e+05 0.0000000000000000e+00 8.6742534319462511e+05 4.2875785072290070e+07 0.0000000000000000e+00 0.0000000000000000e+00 0.0000000000000000e+00 0.0000000000000000e+00  </DataArray> 
</PointData> 
</Piece>
</UnstructuredGrid>
</VTKFile>