<?xml version="1.0"?>
<VTKFile type="UnstructuredGrid"  version="0.1"  >
<UnstructuredGrid>
<Piece  NumberOfPoints="34" NumberOfCells="50">
<Points>
<DataArray  type="Float64"  NumberOfComponents="3"  format="ascii">0.025 0.0625 0  0.025 0.03750000000000001 0  0.07500000000000001 0.03750000000000001 0  0.07500000000000001 0.0625 0  0 0.1 0  0 0 0  0.1 0 0  0.1 0.1 0  0.05 0 0  0.05 0.1 0  0 0.05 0  0.1 0.05 0  0.05 0.03750000000000001 0  0.05 0.0625 0  0.1 0.025 0  0 0.07500000000000001 0  0 0.025 0  0.025 0.1 0  0.025 0 0  0.07500000000000001 0.1 0  0.07500000000000001 0 0  0.1 0.07500000000000001 0  0.0625 0.08125 0  0.0625 0.01875 0  0.03750000000000001 0.01875000000000001 0  0.03750000000000001 0.08125 0  0.081875 0.018125 0  0.018359375 0.01953125 0  0.08164062499999999 0.08046875000000001 0  0.018125 0.081875 0  0.0625 0.0625 0  0.0625 0.03750000000000001 0  0.03750000000000001 0.0625 0  0.03750000000000001 0.03750000000000001 0  </DataArray>
</Points>
<Cells>
<DataArray  type="UInt32"  Name="connectivity"  format="ascii">2 23 26  0 25 32  0 1 10  8 23 24  2 3 11  13 25 32  0 25 29  12 32 33  2 30 31  13 22 30  2 11 14  20 23 26  0 10 15  17 25 29  1 24 33  1 10 16  0 15 29  9 17 25  1 24 27  1 16 27  3 22 30  3 21 28  2 14 26  8 20 23  3 22 28  3 11 21  19 22 28  9 19 22  12 23 31  12 23 24  18 24 27  8 18 24  13 22 25  9 22 25  6 20 26  6 14 26  5 16 27  5 18 27  7 21 28  7 19 28  4 17 29  4 15 29  2 23 31  2 3 30  13 30 31  12 13 31  12 24 33  12 13 32  0 32 33  0 1 33  </DataArray>
<DataArray  type="UInt32"  Name="offsets"  format="ascii">3 6 9 12 15 18 21 24 27 30 33 36 39 42 45 48 51 54 57 60 63 66 69 72 75 78 81 84 87 90 93 96 99 102 105 108 111 114 117 120 123 126 129 132 135 138 141 144 147 150 </DataArray>
<DataArray  type="UInt8"  Name="types"  format="ascii">5 5 5 5 5 5 5 5 5 5 5 5 5 5 5 5 5 5 5 5 5 5 5 5 5 5 5 5 5 5 5 5 5 5 5 5 5 5 5 5 5 5 5 5 5 5 5 5 5 5 </DataArray>
</Cells>
<PointData  Tensors="f_142"> 
<DataArray  type="Float64"  Name="f_142"  NumberOfComponents="9" format="ascii">1.0265480553779989e+10 -3.3722640823799181e+09 0.0000000000000000e+00 -3.3722640823799181e+09 5.0288010141829338e+10 0.0000000000000000e+00 0.0000000000000000e+00 0.0000000000000000e+00 0.0000000000000000e+00  8.0105901824372654e+09 6.8023407302299795e+09 0.0000000000000000e+00 6.8023407302299795e+09 4.7900296457114922e+10 0.0000000000000000e+00 0.0000000000000000e+00 0.0000000000000000e+00 0.0000000000000000e+00  1.0265480553780052e+10 -3.3722640823799243e+09 0.0000000000000000e+00 -3.3722640823799238e+09 5.0288010141829384e+10 0.0000000000000000e+00 0.0000000000000000e+00 0.0000000000000000e+00 0.0000000000000000e+00  8.0105901824373074e+09 6.8023407302300091e+09 0.0000000000000000e+00 6.8023407302300091e+09 4.7900296457114914e+10 0.0000000000000000e+00 0.0000000000000000e+00 0.0000000000000000e+00 0.0000000000000000e+00  8.5463597371288586e+09 -7.3633681355501628e+08 0.0000000000000000e+00 -7.3633681355501628e+08 4.2890656745758919e+10 0.0000000000000000e+00 0.0000000000000000e+00 0.0000000000000000e+00 0.0000000000000000e+00  8.1320626209288797e+09 1.0751419978484108e+09 0.0000000000000000e+00 1.0751419978484108e+09 4.2459053346736908e+10 0.0000000000000000e+00 0.0000000000000000e+00 0.0000000000000000e+00 0.0000000000000000e+00  8.5463597371288614e+09 -7.3633681355499637e+08 0.0000000000000000e+00 -7.3633681355499637e+08 4.2890656745758904e+10 0.0000000000000000e+00 0.0000000000000000e+00 0.0000000000000000e+00 0.0000000000000000e+00  8.1320626209288864e+09 1.0751419978484049e+09 0.0000000000000000e+00 1.0751419978484049e+09 4.2459053346736847e+10 0.0000000000000000e+00 0.0000000000000000e+00 0.0000000000000000e+00 0.0000000000000000e+00  1.0048629866802486e+10 1.2492081244355783e+08 0.0000000000000000e+00 1.2492081244355781e+08 5.2263855773769112e+10 0.0000000000000000e+00 0.0000000000000000e+00 0.0000000000000000e+00 0.0000000000000000e+00  1.0048629866802488e+10 1.2492081244355440e+08 0.0000000000000000e+00 1.2492081244355443e+08 5.2263855773769165e+10 0.0000000000000000e+00 0.0000000000000000e+00 0.0000000000000000e+00 0.0000000000000000e+00  7.5735306890688419e+09 -1.2953461190274830e+09 0.0000000000000000e+00 -1.2953461190274830e+09 2.0821528879103470e+10 0.0000000000000000e+00 0.0000000000000000e+00 0.0000000000000000e+00 0.0000000000000000e+00  7.5735306890688839e+09 -1.2953461190274997e+09 0.0000000000000000e+00 -1.2953461190274992e+09 2.0821528879103424e+10 0.0000000000000000e+00 0.0000000000000000e+00 0.0000000000000000e+00 0.0000000000000000e+00  1.2456773559540594e+10 1.1403232587079551e+09 0.0000000000000000e+00 1.1403232587079551e+09 5.4937337526416306e+10 0.0000000000000000e+00 0.0000000000000000e+00 0.0000000000000000e+00 0.0000000000000000e+00  1.2456773559540628e+10 1.1403232587079155e+09 0.0000000000000000e+00 1.1403232587079155e+09 5.4937337526416275e+10 0.0000000000000000e+00 0.0000000000000000e+00 0.0000000000000000e+00 0.0000000000000000e+00  1.0752866405173569e+10 -5.5598251309415169e+09 0.0000000000000000e+00 -5.5598251309415169e+09 4.6717880357969612e+10 0.0000000000000000e+00 0.0000000000000000e+00 0.0000000000000000e+00 0.0000000000000000e+00  1.0752866405173515e+10 -5.5598251309415064e+09 0.0000000000000000e+00 -5.5598251309415064e+09 4.6717880357969597e+10 0.0000000000000000e+00 0.0000000000000000e+00 0.0000000000000000e+00 0.0000000000000000e+00  1.2843134709888889e+10 5.5252668234184027e+09 0.0000000000000000e+00 5.5252668234184027e+09 4.7575841773336227e+10 0.0000000000000000e+00 0.0000000000000000e+00 0.0000000000000000e+00 0.0000000000000000e+00  9.0510235616126328e+09 -1.2003872211804640e+09 0.0000000000000000e+00 -1.2003872211804640e+09 5.0864380052200920e+10 0.0000000000000000e+00 0.0000000000000000e+00 0.0000000000000000e+00 0.0000000000000000e+00  9.0527572791544476e+09 1.1870689856164827e+09 0.0000000000000000e+00 1.1870689856164827e+09 5.1579238225301163e+10 0.0000000000000000e+00 0.0000000000000000e+00 0.0000000000000000e+00 0.0000000000000000e+00  9.0527572791544495e+09 1.1870689856165016e+09 0.0000000000000000e+00 1.1870689856165016e+09 5.1579238225301201e+10 0.0000000000000000e+00 0.0000000000000000e+00 0.0000000000000000e+00 0.0000000000000000e+00  9.0510235616126461e+09 -1.2003872211804836e+09 0.0000000000000000e+00 -1.2003872211804836e+09 5.0864380052200966e+10 0.0000000000000000e+00 0.0000000000000000e+00 0.0000000000000000e+00 0.0000000000000000e+00  1.2843134709888918e+10 5.5252668234183903e+09 0.0000000000000000e+00 5.5252668234183903e+09 4.7575841773336243e+10 0.0000000000000000e+00 0.0000000000000000e+00 0.0000000000000000e+00 0.0000000000000000e+00  5.5095958061559858e+09 3.2509440594511348e+08 0.0000000000000000e+00 3.2509440594511354e+08 4.9553704524911842e+10 0.0000000000000000e+00 0.0000000000000000e+00 0.0000000000000000e+00 0.0000000000000000e+00  6.0910728180996675e+09 -9.4596544665738273e+08 0.0000000000000000e+00 -9.4596544665738273e+08 5.2147340780967072e+10 0.0000000000000000e+00 0.0000000000000000e+00 0.0000000000000000e+00 0.0000000000000000e+00  5.5095958061559896e+09 3.2509440594510013e+08 0.0000000000000000e+00 3.2509440594510013e+08 4.9553704524911842e+10 0.0000000000000000e+00 0.0000000000000000e+00 0.0000000000000000e+00 0.0000000000000000e+00  6.0910728180996742e+09 -9.4596544665736544e+08 0.0000000000000000e+00 -9.4596544665736544e+08 5.2147340780967010e+10 0.0000000000000000e+00 0.0000000000000000e+00 0.0000000000000000e+00 0.0000000000000000e+00  9.2094594617324276e+09 -1.9497948916660352e+09 0.0000000000000000e+00 -1.9497948916660352e+09 4.7417124058703384e+10 0.0000000000000000e+00 0.0000000000000000e+00 0.0000000000000000e+00 0.0000000000000000e+00  9.4552964934515686e+09 1.8578040448767176e+09 0.0000000000000000e+00 1.8578040448767176e+09 4.8440513762575356e+10 0.0000000000000000e+00 0.0000000000000000e+00 0.0000000000000000e+00 0.0000000000000000e+00  9.4552964934515648e+09 1.8578040448767343e+09 0.0000000000000000e+00 1.8578040448767343e+09 4.8440513762575356e+10 0.0000000000000000e+00 0.0000000000000000e+00 0.0000000000000000e+00 0.0000000000000000e+00  9.2094594617324181e+09 -1.9497948916660202e+09 0.0000000000000000e+00 -1.9497948916660202e+09 4.7417124058703392e+10 0.0000000000000000e+00 0.0000000000000000e+00 0.0000000000000000e+00 0.0000000000000000e+00  1.4278448147806877e+10 2.6562222477966385e+09 0.0000000000000000e+00 2.6562222477966390e+09 8.4411626092058746e+10 0.0000000000000000e+00 0.0000000000000000e+00 0.0000000000000000e+00 0.0000000000000000e+00  1.6705234141951590e+10 -5.6682481788199062e+09 0.0000000000000000e+00 -5.6682481788199062e+09 5.8104764949311295e+10 0.0000000000000000e+00 0.0000000000000000e+00 0.0000000000000000e+00 0.0000000000000000e+00  1.6705234141951595e+10 -5.6682481788198519e+09 0.0000000000000000e+00 -5.6682481788198519e+09 5.8104764949311409e+10 0.0000000000000000e+00 0.0000000000000000e+00 0.0000000000000000e+00 0.0000000000000000e+00  1.4278448147806803e+10 2.6562222477966504e+09 0.0000000000000000e+00 2.6562222477966504e+09 8.4411626092058945e+10 0.0000000000000000e+00 0.0000000000000000e+00 0.0000000000000000e+00 0.0000000000000000e+00  </DataArray> 
</PointData> 
</Piece>
</UnstructuredGrid>
</VTKFile>