<?xml version="1.0"?>
<VTKFile type="UnstructuredGrid"  version="0.1"  >
<UnstructuredGrid>
<Piece  NumberOfPoints="32" NumberOfCells="44">
<Points>
<DataArray  type="Float64"  NumberOfComponents="3"  format="ascii">0.025 0.05625 0  0.025 0.04375 0  0.07500000000000001 0.04375 0  0.07500000000000001 0.05625 0  0 0.1 0  0 0 0  0.1 0 0  0.1 0.1 0  0 0.05 0  0.1 0.05 0  0.05 0 0  0.05 0.1 0  0.05 0.04375 0  0.05 0.05625 0  0.0625 0.078125 0  0.07500000000000001 0 0  0.0625 0.021875 0  0.025 0.1 0  0 0.07500000000000001 0  0.025 0 0  0 0.025 0  0.1 0.07500000000000001 0  0.1 0.025 0  0.07500000000000001 0.1 0  0.03736979166666667 0.078125 0  0.021875 0.02187500000000001 0  0.0421875 0.01897321428571428 0  0.08167613636363637 0.01832386363636364 0  0.0810546875 0.07421875 0  0.01888735142371996 0.07414146856495994 0  0 0.08750000000000001 0  0.1 0.08750000000000001 0  </DataArray>
</Points>
<Cells>
<DataArray  type="UInt32"  Name="connectivity"  format="ascii">2 9 22  0 12 13  0 1 8  2 3 9  2 12 16  3 13 14  0 24 29  0 1 12  2 12 13  2 3 13  11 14 23  2 22 27  10 15 16  12 16 26  19 25 26  11 14 24  11 17 24  17 24 29  18 29 30  5 19 25  5 20 25  1 20 25  1 8 20  3 9 28  9 21 28  6 15 27  6 22 27  7 23 31  0 13 24  13 14 24  1 12 26  1 25 26  10 19 26  10 16 26  2 16 27  15 16 27  14 23 28  3 14 28  8 18 29  0 8 29  17 29 30  4 17 30  23 28 31  21 28 31  </DataArray>
<DataArray  type="UInt32"  Name="offsets"  format="ascii">3 6 9 12 15 18 21 24 27 30 33 36 39 42 45 48 51 54 57 60 63 66 69 72 75 78 81 84 87 90 93 96 99 102 105 108 111 114 117 120 123 126 129 132 </DataArray>
<DataArray  type="UInt8"  Name="types"  format="ascii">5 5 5 5 5 5 5 5 5 5 5 5 5 5 5 5 5 5 5 5 5 5 5 5 5 5 5 5 5 5 5 5 5 5 5 5 5 5 5 5 5 5 5 5 </DataArray>
</Cells>
<PointData  Vectors="f_52"> 
<DataArray  type="Float64"  Name="f_52"  NumberOfComponents="3" format="ascii">4.9963290759797344e-02 9.2403633191569994e-04 0.0000000000000000e+00  5.0008285925469069e-02 9.3089508053170972e-04 0.0000000000000000e+00  5.0071163329620888e-02 1.1146392031087609e-03 0.0000000000000000e+00  5.0025016833406120e-02 1.1080618715511468e-03 0.0000000000000000e+00  0.0000000000000000e+00 0.0000000000000000e+00 0.0000000000000000e+00  0.0000000000000000e+00 0.0000000000000000e+00 0.0000000000000000e+00  1.0000000000000001e-01 0.0000000000000000e+00 0.0000000000000000e+00  1.0000000000000001e-01 0.0000000000000000e+00 0.0000000000000000e+00  -5.6293556713960751e-17 0.0000000000000000e+00 0.0000000000000000e+00  1.0000000000000001e-01 0.0000000000000000e+00 0.0000000000000000e+00  5.0000000000000003e-02 -4.7767014326454226e-17 0.0000000000000000e+00  4.9999999999999996e-02 0.0000000000000000e+00 0.0000000000000000e+00  5.0040380034053061e-02 1.0214066398471144e-03 0.0000000000000000e+00  4.9994041079674478e-02 1.0155269942802654e-03 0.0000000000000000e+00  6.0131647800219928e-02 3.1757927097982690e-03 0.0000000000000000e+00  7.5000000000000011e-02 0.0000000000000000e+00 0.0000000000000000e+00  5.9556369029804983e-02 -3.0571162816206000e-03 0.0000000000000000e+00  2.5000000000000005e-02 0.0000000000000000e+00 0.0000000000000000e+00  0.0000000000000000e+00 0.0000000000000000e+00 0.0000000000000000e+00  2.5000000000000001e-02 0.0000000000000000e+00 0.0000000000000000e+00  0.0000000000000000e+00 0.0000000000000000e+00 0.0000000000000000e+00  1.0000000000000001e-01 0.0000000000000000e+00 0.0000000000000000e+00  1.0000000000000001e-01 0.0000000000000000e+00 0.0000000000000000e+00  7.5000000000000011e-02 0.0000000000000000e+00 0.0000000000000000e+00  3.9724644570871118e-02 3.1318566112701644e-03 0.0000000000000000e+00  2.5871331428974530e-02 1.0588110531157503e-03 0.0000000000000000e+00  4.2785249006911226e-02 -2.8104998977118967e-03 0.0000000000000000e+00  7.9762942231675543e-02 8.7067295570709903e-04 0.0000000000000000e+00  7.5530201766472058e-02 -2.5228791114290878e-03 0.0000000000000000e+00  2.4430407034761251e-02 -2.5967738050570433e-03 0.0000000000000000e+00  0.0000000000000000e+00 0.0000000000000000e+00 0.0000000000000000e+00  1.0000000000000001e-01 0.0000000000000000e+00 0.0000000000000000e+00  </DataArray> 
</PointData> 
</Piece>
</UnstructuredGrid>
</VTKFile>