<?xml version="1.0"?>
<VTKFile type="UnstructuredGrid"  version="0.1"  >
<UnstructuredGrid>
<Piece  NumberOfPoints="34" NumberOfCells="50">
<Points>
<DataArray  type="Float64"  NumberOfComponents="3"  format="ascii">0.025 0.0625 0  0.025 0.03750000000000001 0  0.07500000000000001 0.03750000000000001 0  0.07500000000000001 0.0625 0  0 0.1 0  0 0 0  0.1 0 0  0.1 0.1 0  0.05 0 0  0.05 0.1 0  0 0.05 0  0.1 0.05 0  0.05 0.03750000000000001 0  0.05 0.0625 0  0.1 0.025 0  0 0.07500000000000001 0  0 0.025 0  0.025 0.1 0  0.025 0 0  0.07500000000000001 0.1 0  0.07500000000000001 0 0  0.1 0.07500000000000001 0  0.0625 0.08125 0  0.0625 0.01875 0  0.03750000000000001 0.01875000000000001 0  0.03750000000000001 0.08125 0  0.081875 0.018125 0  0.018359375 0.01953125 0  0.08164062499999999 0.08046875000000001 0  0.018125 0.081875 0  0.0625 0.0625 0  0.0625 0.03750000000000001 0  0.03750000000000001 0.0625 0  0.03750000000000001 0.03750000000000001 0  </DataArray>
</Points>
<Cells>
<DataArray  type="UInt32"  Name="connectivity"  format="ascii">2 23 26  0 25 32  0 1 10  8 23 24  2 3 11  13 25 32  0 25 29  12 32 33  2 30 31  13 22 30  2 11 14  20 23 26  0 10 15  17 25 29  1 24 33  1 10 16  0 15 29  9 17 25  1 24 27  1 16 27  3 22 30  3 21 28  2 14 26  8 20 23  3 22 28  3 11 21  19 22 28  9 19 22  12 23 31  12 23 24  18 24 27  8 18 24  13 22 25  9 22 25  6 20 26  6 14 26  5 16 27  5 18 27  7 21 28  7 19 28  4 17 29  4 15 29  2 23 31  2 3 30  13 30 31  12 13 31  12 24 33  12 13 32  0 32 33  0 1 33  </DataArray>
<DataArray  type="UInt32"  Name="offsets"  format="ascii">3 6 9 12 15 18 21 24 27 30 33 36 39 42 45 48 51 54 57 60 63 66 69 72 75 78 81 84 87 90 93 96 99 102 105 108 111 114 117 120 123 126 129 132 135 138 141 144 147 150 </DataArray>
<DataArray  type="UInt8"  Name="types"  format="ascii">5 5 5 5 5 5 5 5 5 5 5 5 5 5 5 5 5 5 5 5 5 5 5 5 5 5 5 5 5 5 5 5 5 5 5 5 5 5 5 5 5 5 5 5 5 5 5 5 5 5 </DataArray>
</Cells>
<PointData  Vectors="f_52"> 
<DataArray  type="Float64"  Name="f_52"  NumberOfComponents="3" format="ascii">2.6152928707011046e-02 1.6758235455222297e-02 0.0000000000000000e+00  2.3896273693645137e-02 1.7128251174800258e-02 0.0000000000000000e+00  2.3847071292988971e-02 3.3241764544777695e-02 0.0000000000000000e+00  2.6103726306354869e-02 3.2871748825199734e-02 0.0000000000000000e+00  5.0000000000000003e-02 0.0000000000000000e+00 0.0000000000000000e+00  0.0000000000000000e+00 0.0000000000000000e+00 0.0000000000000000e+00  0.0000000000000000e+00 5.0000000000000003e-02 0.0000000000000000e+00  5.0000000000000010e-02 5.0000000000000003e-02 0.0000000000000000e+00  0.0000000000000000e+00 2.5000000000000001e-02 0.0000000000000000e+00  5.0000000000000010e-02 2.5000000000000001e-02 0.0000000000000000e+00  2.5000000000000001e-02 0.0000000000000000e+00 0.0000000000000000e+00  2.5000000000000001e-02 5.0000000000000003e-02 0.0000000000000000e+00  2.4696968972411023e-02 2.4880567376140895e-02 0.0000000000000000e+00  2.5303031027588997e-02 2.5119432623859111e-02 0.0000000000000000e+00  1.2500000000000001e-02 5.0000000000000003e-02 0.0000000000000000e+00  3.7500000000000006e-02 0.0000000000000000e+00 0.0000000000000000e+00  1.2500000000000001e-02 0.0000000000000000e+00 0.0000000000000000e+00  5.0000000000000003e-02 1.2500000000000001e-02 0.0000000000000000e+00  0.0000000000000000e+00 1.2500000000000001e-02 0.0000000000000000e+00  5.0000000000000010e-02 3.7500000000000006e-02 0.0000000000000000e+00  0.0000000000000000e+00 3.7500000000000006e-02 0.0000000000000000e+00  3.7500000000000006e-02 5.0000000000000003e-02 0.0000000000000000e+00  3.9193571608031011e-02 3.0213884481716122e-02 0.0000000000000000e+00  1.0860637493221397e-02 3.0168770910561075e-02 0.0000000000000000e+00  1.0806428391969007e-02 1.9786115518283881e-02 0.0000000000000000e+00  3.9139362506778609e-02 1.9831229089438934e-02 0.0000000000000000e+00  1.0381963839603145e-02 3.9173442865909326e-02 0.0000000000000000e+00  1.1255361204091954e-02 1.1210171754702347e-02 0.0000000000000000e+00  3.8744638795908039e-02 3.8789828245297649e-02 0.0000000000000000e+00  3.9618036160396872e-02 1.0826557134090670e-02 0.0000000000000000e+00  2.5436801005697136e-02 2.9439239992886990e-02 0.0000000000000000e+00  2.4474189589264454e-02 2.9266882194989057e-02 0.0000000000000000e+00  2.5525810410735553e-02 2.0733117805010946e-02 0.0000000000000000e+00  2.4563198994302881e-02 2.0560760007113012e-02 0.0000000000000000e+00  </DataArray> 
</PointData> 
</Piece>
</UnstructuredGrid>
</VTKFile>