<?xml version="1.0"?>
<VTKFile type="UnstructuredGrid"  version="0.1"  >
<UnstructuredGrid>
<Piece  NumberOfPoints="32" NumberOfCells="44">
<Points>
<DataArray  type="Float64"  NumberOfComponents="3"  format="ascii">0.025 0.05625 0  0.025 0.04375 0  0.07500000000000001 0.04375 0  0.07500000000000001 0.05625 0  0 0.1 0  0 0 0  0.1 0 0  0.1 0.1 0  0 0.05 0  0.1 0.05 0  0.05 0 0  0.05 0.1 0  0.05 0.04375 0  0.05 0.05625 0  0.0625 0.078125 0  0.07500000000000001 0 0  0.0625 0.021875 0  0.025 0.1 0  0 0.07500000000000001 0  0.025 0 0  0 0.025 0  0.1 0.07500000000000001 0  0.1 0.025 0  0.07500000000000001 0.1 0  0.03736979166666667 0.078125 0  0.021875 0.02187500000000001 0  0.0421875 0.01897321428571428 0  0.08167613636363637 0.01832386363636364 0  0.0810546875 0.07421875 0  0.01888735142371996 0.07414146856495994 0  0 0.08750000000000001 0  0.1 0.08750000000000001 0  </DataArray>
</Points>
<Cells>
<DataArray  type="UInt32"  Name="connectivity"  format="ascii">2 9 22  0 12 13  0 1 8  2 3 9  2 12 16  3 13 14  0 24 29  0 1 12  2 12 13  2 3 13  11 14 23  2 22 27  10 15 16  12 16 26  19 25 26  11 14 24  11 17 24  17 24 29  18 29 30  5 19 25  5 20 25  1 20 25  1 8 20  3 9 28  9 21 28  6 15 27  6 22 27  7 23 31  0 13 24  13 14 24  1 12 26  1 25 26  10 19 26  10 16 26  2 16 27  15 16 27  14 23 28  3 14 28  8 18 29  0 8 29  17 29 30  4 17 30  23 28 31  21 28 31  </DataArray>
<DataArray  type="UInt32"  Name="offsets"  format="ascii">3 6 9 12 15 18 21 24 27 30 33 36 39 42 45 48 51 54 57 60 63 66 69 72 75 78 81 84 87 90 93 96 99 102 105 108 111 114 117 120 123 126 129 132 </DataArray>
<DataArray  type="UInt8"  Name="types"  format="ascii">5 5 5 5 5 5 5 5 5 5 5 5 5 5 5 5 5 5 5 5 5 5 5 5 5 5 5 5 5 5 5 5 5 5 5 5 5 5 5 5 5 5 5 5 </DataArray>
</Cells>
<PointData  Vectors="f_52"> 
<DataArray  type="Float64"  Name="f_52"  NumberOfComponents="3" format="ascii">2.2851853001715002e-02 1.6098477439723910e-02 0.0000000000000000e+00  2.7293134317419730e-02 1.6098993061941985e-02 0.0000000000000000e+00  2.7293146816030883e-02 3.3890808442106325e-02 0.0000000000000000e+00  2.2851883412525399e-02 3.3890351978407507e-02 0.0000000000000000e+00  5.0000000000000003e-02 0.0000000000000000e+00 0.0000000000000000e+00  0.0000000000000000e+00 0.0000000000000000e+00 0.0000000000000000e+00  0.0000000000000000e+00 5.0000000000000003e-02 0.0000000000000000e+00  5.0000000000000003e-02 5.0000000000000003e-02 0.0000000000000000e+00  2.4999999999999981e-02 0.0000000000000000e+00 0.0000000000000000e+00  2.5000000000000001e-02 4.9999999999999996e-02 0.0000000000000000e+00  0.0000000000000000e+00 2.5000000000000026e-02 0.0000000000000000e+00  4.9999999999999996e-02 2.5000000000000001e-02 0.0000000000000000e+00  2.7294623021813361e-02 2.4994489959156832e-02 0.0000000000000000e+00  2.2850415504198956e-02 2.4994972723903660e-02 0.0000000000000000e+00  3.7687322593742585e-02 3.0394519717134270e-02 0.0000000000000000e+00  0.0000000000000000e+00 3.7500000000000006e-02 0.0000000000000000e+00  1.2260563734916931e-02 3.0423114901624967e-02 0.0000000000000000e+00  5.0000000000000010e-02 1.2500000000000001e-02 0.0000000000000000e+00  3.7500000000000006e-02 0.0000000000000000e+00 0.0000000000000000e+00  0.0000000000000000e+00 1.2500000000000001e-02 0.0000000000000000e+00  1.2500000000000001e-02 0.0000000000000000e+00 0.0000000000000000e+00  3.7500000000000006e-02 5.0000000000000003e-02 0.0000000000000000e+00  1.2500000000000001e-02 5.0000000000000003e-02 0.0000000000000000e+00  5.0000000000000003e-02 3.7500000000000006e-02 0.0000000000000000e+00  3.7690355044287104e-02 1.9544057628568284e-02 0.0000000000000000e+00  1.2325244991850094e-02 1.2522918328283098e-02 0.0000000000000000e+00  1.0486682820089049e-02 2.1501392522694267e-02 0.0000000000000000e+00  1.0031127345727770e-02 3.9618444593747464e-02 0.0000000000000000e+00  3.5269292794704879e-02 3.8517507265805995e-02 0.0000000000000000e+00  3.5230958270893772e-02 1.1450734773028758e-02 0.0000000000000000e+00  4.3750000000000004e-02 0.0000000000000000e+00 0.0000000000000000e+00  4.3750000000000004e-02 5.0000000000000003e-02 0.0000000000000000e+00  </DataArray> 
</PointData> 
</Piece>
</UnstructuredGrid>
</VTKFile>