<?xml version="1.0"?>
<VTKFile type="UnstructuredGrid"  version="0.1"  >
<UnstructuredGrid>
<Piece  NumberOfPoints="34" NumberOfCells="50">
<Points>
<DataArray  type="Float64"  NumberOfComponents="3"  format="ascii">0.025 0.0625 0  0.025 0.03750000000000001 0  0.07500000000000001 0.03750000000000001 0  0.07500000000000001 0.0625 0  0 0.1 0  0 0 0  0.1 0 0  0.1 0.1 0  0.05 0 0  0.05 0.1 0  0 0.05 0  0.1 0.05 0  0.05 0.03750000000000001 0  0.05 0.0625 0  0.1 0.025 0  0 0.07500000000000001 0  0 0.025 0  0.025 0.1 0  0.025 0 0  0.07500000000000001 0.1 0  0.07500000000000001 0 0  0.1 0.07500000000000001 0  0.0625 0.08125 0  0.0625 0.01875 0  0.03750000000000001 0.01875000000000001 0  0.03750000000000001 0.08125 0  0.081875 0.018125 0  0.018359375 0.01953125 0  0.08164062499999999 0.08046875000000001 0  0.018125 0.081875 0  0.0625 0.0625 0  0.0625 0.03750000000000001 0  0.03750000000000001 0.0625 0  0.03750000000000001 0.03750000000000001 0  </DataArray>
</Points>
<Cells>
<DataArray  type="UInt32"  Name="connectivity"  format="ascii">2 23 26  0 25 32  0 1 10  8 23 24  2 3 11  13 25 32  0 25 29  12 32 33  2 30 31  13 22 30  2 11 14  20 23 26  0 10 15  17 25 29  1 24 33  1 10 16  0 15 29  9 17 25  1 24 27  1 16 27  3 22 30  3 21 28  2 14 26  8 20 23  3 22 28  3 11 21  19 22 28  9 19 22  12 23 31  12 23 24  18 24 27  8 18 24  13 22 25  9 22 25  6 20 26  6 14 26  5 16 27  5 18 27  7 21 28  7 19 28  4 17 29  4 15 29  2 23 31  2 3 30  13 30 31  12 13 31  12 24 33  12 13 32  0 32 33  0 1 33  </DataArray>
<DataArray  type="UInt32"  Name="offsets"  format="ascii">3 6 9 12 15 18 21 24 27 30 33 36 39 42 45 48 51 54 57 60 63 66 69 72 75 78 81 84 87 90 93 96 99 102 105 108 111 114 117 120 123 126 129 132 135 138 141 144 147 150 </DataArray>
<DataArray  type="UInt8"  Name="types"  format="ascii">5 5 5 5 5 5 5 5 5 5 5 5 5 5 5 5 5 5 5 5 5 5 5 5 5 5 5 5 5 5 5 5 5 5 5 5 5 5 5 5 5 5 5 5 5 5 5 5 5 5 </DataArray>
</Cells>
<PointData  Vectors="f_52"> 
<DataArray  type="Float64"  Name="f_52"  NumberOfComponents="3" format="ascii">1.3169099804109341e-03 5.5418400342344958e-02 0.0000000000000000e+00  1.9666995650587369e-03 4.4788031467235659e-02 0.0000000000000000e+00  -1.3169099804109670e-03 4.4581599657655076e-02 0.0000000000000000e+00  -1.9666995650587556e-03 5.5211968532764361e-02 0.0000000000000000e+00  0.0000000000000000e+00 1.0000000000000002e-01 0.0000000000000000e+00  0.0000000000000000e+00 0.0000000000000000e+00 0.0000000000000000e+00  0.0000000000000000e+00 0.0000000000000000e+00 0.0000000000000000e+00  0.0000000000000000e+00 1.0000000000000001e-01 0.0000000000000000e+00  0.0000000000000000e+00 0.0000000000000000e+00 0.0000000000000000e+00  0.0000000000000000e+00 1.0000000000000001e-01 0.0000000000000000e+00  0.0000000000000000e+00 5.0000000000000003e-02 0.0000000000000000e+00  0.0000000000000000e+00 5.0000000000000003e-02 0.0000000000000000e+00  -3.3720157952503698e-04 4.7097142319620713e-02 0.0000000000000000e+00  3.3720157952500185e-04 5.2902857680379327e-02 0.0000000000000000e+00  0.0000000000000000e+00 2.5000000000000001e-02 0.0000000000000000e+00  0.0000000000000000e+00 7.5000000000000011e-02 0.0000000000000000e+00  0.0000000000000000e+00 2.5000000000000001e-02 0.0000000000000000e+00  0.0000000000000000e+00 1.0000000000000001e-01 0.0000000000000000e+00  0.0000000000000000e+00 0.0000000000000000e+00 0.0000000000000000e+00  0.0000000000000000e+00 1.0000000000000001e-01 0.0000000000000000e+00  0.0000000000000000e+00 0.0000000000000000e+00 0.0000000000000000e+00  0.0000000000000000e+00 7.5000000000000011e-02 0.0000000000000000e+00  -5.3227702125709716e-04 7.7055381146085705e-02 0.0000000000000000e+00  -6.4592741752138479e-04 2.2990242846856530e-02 0.0000000000000000e+00  5.3227702125708902e-04 2.2944618853914293e-02 0.0000000000000000e+00  6.4592741752136657e-04 7.7009757153143482e-02 0.0000000000000000e+00  -9.0541867272496922e-04 2.0764360484662764e-02 0.0000000000000000e+00  9.9886551553722428e-04 2.2506990731555990e-02 0.0000000000000000e+00  -9.9886551553723360e-04 7.7493009268444019e-02 0.0000000000000000e+00  9.0541867272495762e-04 7.9235639515337242e-02 0.0000000000000000e+00  -2.9939884513840623e-04 5.3052788212414638e-02 0.0000000000000000e+00  -8.1148191633645069e-04 4.6595669108046543e-02 0.0000000000000000e+00  8.1148191633641296e-04 5.3404330891953497e-02 0.0000000000000000e+00  2.9939884513837864e-04 4.6947211787585381e-02 0.0000000000000000e+00  </DataArray> 
</PointData> 
</Piece>
</UnstructuredGrid>
</VTKFile>