<?xml version="1.0"?>
<VTKFile type="UnstructuredGrid"  version="0.1"  >
<UnstructuredGrid>
<Piece  NumberOfPoints="32" NumberOfCells="44">
<Points>
<DataArray  type="Float64"  NumberOfComponents="3"  format="ascii">0.025 0.05625 0  0.025 0.04375 0  0.07500000000000001 0.04375 0  0.07500000000000001 0.05625 0  0 0.1 0  0 0 0  0.1 0 0  0.1 0.1 0  0 0.05 0  0.1 0.05 0  0.05 0 0  0.05 0.1 0  0.05 0.04375 0  0.05 0.05625 0  0.0625 0.078125 0  0.07500000000000001 0 0  0.0625 0.021875 0  0.025 0.1 0  0 0.07500000000000001 0  0.025 0 0  0 0.025 0  0.1 0.07500000000000001 0  0.1 0.025 0  0.07500000000000001 0.1 0  0.03736979166666667 0.078125 0  0.021875 0.02187500000000001 0  0.0421875 0.01897321428571428 0  0.08167613636363637 0.01832386363636364 0  0.0810546875 0.07421875 0  0.01888735142371996 0.07414146856495994 0  0 0.08750000000000001 0  0.1 0.08750000000000001 0  </DataArray>
</Points>
<Cells>
<DataArray  type="UInt32"  Name="connectivity"  format="ascii">2 9 22  0 12 13  0 1 8  2 3 9  2 12 16  3 13 14  0 24 29  0 1 12  2 12 13  2 3 13  11 14 23  2 22 27  10 15 16  12 16 26  19 25 26  11 14 24  11 17 24  17 24 29  18 29 30  5 19 25  5 20 25  1 20 25  1 8 20  3 9 28  9 21 28  6 15 27  6 22 27  7 23 31  0 13 24  13 14 24  1 12 26  1 25 26  10 19 26  10 16 26  2 16 27  15 16 27  14 23 28  3 14 28  8 18 29  0 8 29  17 29 30  4 17 30  23 28 31  21 28 31  </DataArray>
<DataArray  type="UInt32"  Name="offsets"  format="ascii">3 6 9 12 15 18 21 24 27 30 33 36 39 42 45 48 51 54 57 60 63 66 69 72 75 78 81 84 87 90 93 96 99 102 105 108 111 114 117 120 123 126 129 132 </DataArray>
<DataArray  type="UInt8"  Name="types"  format="ascii">5 5 5 5 5 5 5 5 5 5 5 5 5 5 5 5 5 5 5 5 5 5 5 5 5 5 5 5 5 5 5 5 5 5 5 5 5 5 5 5 5 5 5 5 </DataArray>
</Cells>
<PointData  Vectors="f_52"> 
<DataArray  type="Float64"  Name="f_52"  NumberOfComponents="3" format="ascii">3.7611677989170406e-06 4.9876534273669865e-02 0.0000000000000000e+00  1.5670356602835843e-05 4.9870930341432140e-02 0.0000000000000000e+00  9.9609070991010072e-06 4.9913696146711706e-02 0.0000000000000000e+00  -1.4636526379469831e-06 4.9919200479787054e-02 0.0000000000000000e+00  0.0000000000000000e+00 1.0000000000000001e-01 0.0000000000000000e+00  0.0000000000000000e+00 0.0000000000000000e+00 0.0000000000000000e+00  0.0000000000000000e+00 0.0000000000000000e+00 0.0000000000000000e+00  0.0000000000000000e+00 1.0000000000000001e-01 0.0000000000000000e+00  3.6416317011726633e-18 4.9999999999999940e-02 0.0000000000000000e+00  0.0000000000000000e+00 4.9999999999999996e-02 0.0000000000000000e+00  0.0000000000000000e+00 -5.5393876477211321e-17 0.0000000000000000e+00  0.0000000000000000e+00 1.0000000000000001e-01 0.0000000000000000e+00  1.1802721067193706e-05 4.9894121725272668e-02 0.0000000000000000e+00  2.1162115857576453e-06 4.9896704310417872e-02 0.0000000000000000e+00  -2.1770786499752178e-04 7.5111434632525481e-02 0.0000000000000000e+00  0.0000000000000000e+00 0.0000000000000000e+00 0.0000000000000000e+00  -1.0163205275219038e-04 2.4864019314015093e-02 0.0000000000000000e+00  0.0000000000000000e+00 1.0000000000000001e-01 0.0000000000000000e+00  0.0000000000000000e+00 7.5000000000000011e-02 0.0000000000000000e+00  0.0000000000000000e+00 0.0000000000000000e+00 0.0000000000000000e+00  0.0000000000000000e+00 2.5000000000000001e-02 0.0000000000000000e+00  0.0000000000000000e+00 7.5000000000000011e-02 0.0000000000000000e+00  0.0000000000000000e+00 2.5000000000000001e-02 0.0000000000000000e+00  0.0000000000000000e+00 1.0000000000000002e-01 0.0000000000000000e+00  2.1530511352166556e-04 7.5104415669758506e-02 0.0000000000000000e+00  4.1275688494724641e-04 2.4368388134574193e-02 0.0000000000000000e+00  1.1960570787866702e-04 2.1550079010311418e-02 0.0000000000000000e+00  -4.0680615383653369e-04 2.0175607690094199e-02 0.0000000000000000e+00  -6.4999524791770037e-04 7.1662194191636899e-02 0.0000000000000000e+00  6.5310405027857324e-04 7.1568894423418225e-02 0.0000000000000000e+00  0.0000000000000000e+00 8.7500000000000008e-02 0.0000000000000000e+00  0.0000000000000000e+00 8.7500000000000008e-02 0.0000000000000000e+00  </DataArray> 
</PointData> 
</Piece>
</UnstructuredGrid>
</VTKFile>