<?xml version="1.0"?>
<VTKFile type="UnstructuredGrid"  version="0.1"  >
<UnstructuredGrid>
<Piece  NumberOfPoints="392" NumberOfCells="684">
<Points>
<DataArray  type="Float64"  NumberOfComponents="3"  format="ascii">1.925 0.0625 0  1.925 0.03750000000000001 0  1.975 0.03750000000000001 0  1.975 0.0625 0  1.825 0.0625 0  1.825 0.03750000000000001 0  1.875 0.03750000000000001 0  1.875 0.0625 0  1.725 0.0625 0  1.725 0.03750000000000001 0  1.775 0.03750000000000001 0  1.775 0.0625 0  1.625 0.0625 0  1.625 0.03750000000000001 0  1.675 0.03750000000000001 0  1.675 0.0625 0  1.125 0.4625 0  1.125 0.4375 0  1.175 0.4375 0  1.175 0.4625 0  1.025 0.4625 0  1.025 0.4375 0  1.075 0.4375 0  1.075 0.4625 0  0.9249999999999999 0.4625 0  0.9249999999999999 0.4375 0  0.975 0.4375 0  0.975 0.4625 0  0.825 0.4625 0  0.825 0.4375 0  0.875 0.4375 0  0.875 0.4625 0  0.325 0.0625 0  0.325 0.03750000000000001 0  0.375 0.03750000000000001 0  0.375 0.0625 0  0.225 0.0625 0  0.225 0.03750000000000001 0  0.275 0.03750000000000001 0  0.275 0.0625 0  0.125 0.0625 0  0.125 0.03750000000000001 0  0.175 0.03750000000000001 0  0.175 0.0625 0  0.025 0.0625 0  0.025 0.03750000000000001 0  0.07500000000000001 0.03750000000000001 0  0.07500000000000001 0.0625 0  0.04999999999999999 -0.05 0  0.04999999999999999 -0.1 0  0.35 -0.1 0  0.35 -0.05 0  0.3646446609406727 -0.01464466094067262 0  0.4 0 0  0.4 0.1 0  0 0.1 0  0 0 0  0.03535533905932739 -0.01464466094067263 0  1.2 0.4 0  1.2 0.5 0  1.164644660940673 0.5146446609406726 0  1.15 0.5499999999999999 0  1.15 0.6 0  0.85 0.6 0  0.85 0.55 0  0.8353553390593274 0.5146446609406726 0  0.8 0.5 0  0.7999999999999999 0.4 0  1.65 -0.05 0  1.65 -0.1 0  1.95 -0.1 0  1.95 -0.05 0  1.964644660940673 -0.01464466094067262 0  2 0 0  2 0.1 0  1.6 0.1 0  1.6 0 0  1.635355339059327 -0.01464466094067263 0  0 0.5 0  2 0.5 0  1.2 0.45 0  1 0 0  0.4 0.05 0  0 0.05 0  1.8 -0.1 0  0.2 -0.1 0  1 0.6 0  1.8 0.1 0  0.8 0.45 0  0.4 0.5 0  1 0.4 0  2 0.05 0  1.6 0.05 0  0.2 0.1 0  1.9 0.1 0  1.7 0.1 0  0.8999999999999999 0.4 0  1.1 0.4 0  0.1 0.1 0  0.3 0.1 0  1.95 0.1 0  1.85 0.1 0  1.65 0.1 0  1.75 0.1 0  0.8499999999999999 0.4 0  0.95 0.4 0  1.15 0.4 0  1.05 0.4 0  0.05 0.1 0  0.15 0.1 0  0.35 0.1 0  0.25 0.1 0  1.6 0.5 0  1.3 0 0  0.7 0 0  1.4375 0.3 0  0.5625 0.3 0  0.2 0.5 0  1.8 0.5 0  2 0.3 0  1.175 0.1812499999999999 0  0.85 0.1718750000000001 0  0.325 0.30625 0  0 0.3 0  1.675 0.30625 0  0.6000000000000001 0.5 0  1.4 0.5 0  0.55 0 0  1.341622340425532 0.1624335106382981 0  0.6773726522481502 0.1711395489470689 0  1.012901283253751 0.162651347203274 0  0.1632109004739336 0.2661581753554502 0  1.836789099526067 0.2661581753554501 0  1.45 0 0  0.85 0 0  1.15 0 0  0.5329311837679237 0.158009038188562 0  0.1048445205763076 0.3951554794236924 0  1.895155479423692 0.3951554794236923 0  1.296148418660236 0.2963212443180608 0  1.470822962357565 0.1312655564636528 0  1.563133067958938 0.2301675207422046 0  0.7632564689914135 0.2724046712857893 0  1.5 0.5 0  1.554464285714286 0.3709821428571428 0  0.6669642857142857 0.3839285714285714 0  0.5 0.5 0  0.4455357142857143 0.3709821428571428 0  0.4243119651802664 0.2256020782473696 0  1.082498036353099 0.2717671838924914 0  0.9372456691183737 0.2696106313453704 0  0.2267876088535605 0.3800847476474584 0  1.77321239114644 0.3800847476474585 0  1.3 0.5 0  1.36443880878442 0.3898166516470788 0  0.7749999999999999 0.08593750000000001 0  0.925 0.08593750000000004 0  1.250122512805358 0.09933018124507483 0  0.275 0.2076704545454545 0  1.73756600464573 0.2122399107802653 0  1.188322811889439 0.292749054583077 0  0.6122357112402278 0.0866494119172642 0  1.102329427930278 0.09892438925099596 0  1.7 0.5 0  0.3 0.5 0  0.5459552020690525 0.4045953756465789 0  2 0.2 0  0 0.2 0  0.6623894180364593 0.2826461878847109 0  0.1 0.5 0  0 0.4 0  2 0.4 0  1.9 0.5 0  0.7000000000000001 0.5 0  0.3218789381964591 0.4043351855737367 0  1.651846443535515 0.4077254588986433 0  1.389349570269088 0.07690549543040782 0  1.460753985780937 0.393539984346597 0  0.5997360736198706 0.2181715474379875 0  0.125 0.1855919731052476 0  1.875 0.1855919731052475 0  1.650439576694959 0.2220797951794818 0  0.8508156068645467 0.3061622962159847 0  0.7636863261240752 0.1715072744735344 0  1.475131383499517 0.2197740741701695 0  0.4911912217663637 0.07357366529909103 0  1.930906424286099 0.25 0  0.07640224989301839 0.2579853162158819 0  1.259621577815083 0.1834455767022115 0  1.368178610886578 0.2461194380394792 0  0.2443588009795495 0.2851816999747424 0  1.758630395614505 0.2972444940617194 0  1.283553234500905 0.4164467654990952 0  1.092979533702891 0.180414477406161 0  1.006450641626876 0.08132567360163702 0  0.9314506416268757 0.167263173601637 0  0.6935959492753776 0.08128501245057949 0  1.075 0.6 0  1.875 -0.1 0  1.725 -0.1 0  0.275 -0.1 0  0.125 -0.1 0  0.925 0.6 0  1.525 0 0  0.4776569423119861 0.2920535891286455 0  0.4020861482848835 0.3072992534399704 0  1.025 0.3254298552747583 0  0.2027347199230812 0.1780516756640375 0  0.3537475299621801 0.1825670159535071 0  1.375 0 0  0.85 0.09617897727272727 0  1.225 0 0  0.925 0 0  0.7749999999999999 0 0  0.475 0 0  0.625 0 0  1.075 0 0  1.928301565342725 0.3263388024218867 0  0.7294912511984659 0.4250000000000002 0  0.7363172176531352 0.3464770727519887 0  1.176296005364802 0.07361991101586525 0  0.25 -0.03125 0  0.15 -0.03125 0  1.05 0.53125 0  1.85 -0.03125 0  1.75 -0.03124999999999999 0  0.95 0.53125 0  1.413833501026992 0.1783988133279079 0  1.010311808337519 0.2410561529140032 0  0.4612760904572917 0.1408965722872714 0  0.4972279162726879 0.2217051796165551 0  1.125772017208398 0.3308706697164291 0  1.367901752364094 0.3180095046854547 0  1.518670939081018 0.2981045015502355 0  1.59690777167693 0.30078962236185 0  1.526128395599057 0.07727870330070698 0  1.828872040436541 0.4306006981581906 0  0.15 0.4497761506325246 0  1.839758054208022 0.3425177730532244 0  0.1141942995330689 0.3216829623232483 0  1.945369442271463 0.4453694422714633 0  0.05 0.5 0  1.240686027304319 0.3413090544113066 0  1.316928753233505 0.07068836381982413 0  0.2619027753960266 0.4409526983943627 0  1.720845561542362 0.4304199639905683 0  1.55 0.4451024159663866 0  0.4809317384335179 0.4320447270774966 0  1.807015290356054 0.2026926420903883 0  0.05026445138346253 0.3508787038538807 0  0.393856566906688 0.4252870866393352 0  0.913220178645909 0.3332620492501031 0  1.525273295158551 0.1729741426009245 0  1.601658996405642 0.1707744844670951 0  0.8733054036978282 0.2388795773210715 0  0.6125435906042009 0.4298843517222039 0  0.6200850989387395 0.3353015637829367 0  1.460711153920992 0.06558524044355403 0  0.8066282344957068 0.2221398356428947 0  0.7203145606197819 0.2217721101164291 0  1.703740671329455 0.3661869225849074 0  0.5990587027436781 0.1517521314804627 0  1.675 0.1609506706744878 0  0.5153836090368266 0.3461533817824105 0  1.243679482455746 0.2509523986931738 0  0.1923088017181099 0.3246228684067324 0  1.143479272814173 0.2415618384172959 0  0.3613256977497352 0.249510776893205 0  1.35 0.5 0  0.36286559874544 0.3565471286944428 0  0.05955885377676867 0.1672794268883843 0  1.938138695104181 0.1872548469777267 0  1.312129673616584 0.2178490428945431 0  0.2732136354092187 0.3396023070187588 0  0.1661642491970064 0.3904374081211693 0  1.410896435200069 0.4356529402203816 0  0.5498786686905027 0.09709658512388622 0  0.7931800870948912 0.3252224786258671 0  1.299731160983831 0.3574199598841847 0  1.632705368110799 0.3499788667466203 0  0.35 0.5 0  1.413967210687929 0.3562181143537333 0  0.075 0.4463106472259004 0  1.775 0.1532937771065077 0  0.6717759379371472 0.4456036019631708 0  0.4103666348092597 0.1690985306522001 0  0.2228761112987135 0.2318772604727423 0  0.8070036251099498 0.1340269886363636 0  0.720694593897288 0.1325695228173195 0  0.8816324869791667 0.04808948863636364 0  0.8124999999999999 0.04296875 0  0.9625 0.04296875000000002 0  0.7374999999999999 0.04296875000000001 0  0.9699215651412139 0.1251417750323321 0  1.491992169547333 0.4424881086376402 0  1.712698203298838 0.2635144279265098 0  0.6570382073221132 0.2251671676055735 0  0.2058570911263748 0.44416851527159 0  0.9682933569671909 0.3176896785403109 0  1.25 0.5 0  1.479026197932725 0.3393370671651255 0  1.198847580415758 0.127714308405318 0  1.2625 0.04335760283262356 0  1.29147781925916 0.1372540266083001 0  1.356072654547209 0.4447580517396325 0  0.2940110804164894 0.2599978349000986 0  0.3023094202100461 0.157273826160548 0  1.42164755951862 0.232916561801728 0  1.060942787665469 0.1354572591164508 0  1.1343661739677 0.1438816075407062 0  1.126829345559166 0.04978247325994596 0  0.55 0.5 0  1.878247609755212 0.3027837348463762 0  1.45 0.5 0  1.60711932076804 0.4432973516127806 0  1.65 0.5 0  0.8887128874759703 0.1340269886363636 0  1.774828163938701 0.4488223788724915 0  0.9741951226330795 0.2006181632730862 0  1.186518668510543 0.3472066475339435 0  2 0.15 0  0.655342391488794 0.1207701386972099 0  0.5875 0.03874074761510298 0  1.0375 0.03794421594571627 0  0.6505462210657735 0.04802806016679532 0  1.777778634182298 0.2473873017454838 0  0.45 0.5 0  0.5690954247705213 0.3538594787582222 0  1.830596789080292 0.1521143869125729 0  1.880979602406887 0.4483446850634988 0  1.947802068033803 0.3927228536613528 0  2 0.35 0  1.562441350057411 0.136287083472548 0  1.416812175611726 0.1239803747715759 0  0.75 0.5 0  0.5493328796498124 0.2446219238602108 0  1.075 0.3513111004457051 0  1.060628046991921 0.2229802372164043 0  0.9221538744171671 0.2191273562955505 0  1.8 -0.01051136363636362 0  1.6953125 -0.01562499999999998 0  1.897713414634147 -0.05282012195121953 0  1.097713414634147 0.5528201219512194 0  1 0.5105113636363637 0  0.2977134146341464 -0.0528201219512195 0  0.2 -0.01051136363636362 0  0.1022865853658537 -0.05282012195121952 0  0.8953125 0.515625 0  0.2494651744946157 0.1530130413581762 0  0.7122738490955939 0.2721174869100541 0  0.6711366323973266 0.3329955950433481 0  0.6113378845778723 0.2849521566242995 0  1.19392139556
[...]
<PointData  Tensors="f_267"> 
<DataArray  type="Float64"  Name="f_267"  NumberOfComponents="9" format="ascii">-6.6736888025695052e+03 1.9635271118184521e+03 0.0000000000000000e+00 1.9635271118184521e+03 1.1044687289399744e+04 0.0000000000000000e+00 0.0000000000000000e+00 0.0000000000000000e+00 0.0000000000000000e+00  -8.2976914581639394e+03 3.5529185001952669e+03 0.0000000000000000e+00 3.5529185001952669e+03 6.3695386743400959e+03 0.0000000000000000e+00 0.0000000000000000e+00 0.0000000000000000e+00 0.0000000000000000e+00  -2.0823488519843745e+03 4.1832260281779263e+03 0.0000000000000000e+00 4.1832260281779263e+03 1.8948645691453588e+04 0.0000000000000000e+00 0.0000000000000000e+00 0.0000000000000000e+00 0.0000000000000000e+00  -2.2758880310293389e+03 1.9339572198532671e+03 0.0000000000000000e+00 1.9339572198532671e+03 2.3562698570119901e+04 0.0000000000000000e+00 0.0000000000000000e+00 0.0000000000000000e+00 0.0000000000000000e+00  -1.7044479969129188e+04 2.2070489327540949e+03 0.0000000000000000e+00 2.2070489327540949e+03 -1.8938090926129455e+04 0.0000000000000000e+00 0.0000000000000000e+00 0.0000000000000000e+00 0.0000000000000000e+00  -2.5968517925418102e+04 6.1031504178834930e+03 0.0000000000000000e+00 6.1031504178834930e+03 -2.1429133898385735e+04 0.0000000000000000e+00 0.0000000000000000e+00 0.0000000000000000e+00 0.0000000000000000e+00  -1.0378355426846234e+04 6.3936496594302143e+03 0.0000000000000000e+00 6.3936496594302143e+03 -9.7622149749370710e+03 0.0000000000000000e+00 0.0000000000000000e+00 0.0000000000000000e+00 0.0000000000000000e+00  -9.8787975028530000e+03 2.5230088102443892e+03 0.0000000000000000e+00 2.5230088102443892e+03 -5.5438288983529958e+02 0.0000000000000000e+00 0.0000000000000000e+00 0.0000000000000000e+00 0.0000000000000000e+00  -2.9824573329585517e+04 5.3150979642900602e+03 0.0000000000000000e+00 5.3150979642900602e+03 -4.9012347355772406e+04 0.0000000000000000e+00 0.0000000000000000e+00 0.0000000000000000e+00 0.0000000000000000e+00  -4.7097673874894310e+04 9.5711307928413444e+03 0.0000000000000000e+00 9.5711307928413444e+03 -5.8993902794683614e+04 0.0000000000000000e+00 0.0000000000000000e+00 0.0000000000000000e+00 0.0000000000000000e+00  -2.1569699460775624e+04 7.9120154066519553e+03 0.0000000000000000e+00 7.9120154066519553e+03 -4.0475536574978185e+04 0.0000000000000000e+00 0.0000000000000000e+00 0.0000000000000000e+00 0.0000000000000000e+00  -2.3947164634339497e+04 4.0087053370975023e+03 0.0000000000000000e+00 4.0087053370975023e+03 -3.0973674422048702e+04 0.0000000000000000e+00 0.0000000000000000e+00 0.0000000000000000e+00 0.0000000000000000e+00  -3.7085862426188214e+04 1.9286143308372575e+04 0.0000000000000000e+00 1.9286143308372575e+04 -7.2595877140783792e+04 0.0000000000000000e+00 0.0000000000000000e+00 0.0000000000000000e+00 0.0000000000000000e+00  -8.6173832199971323e+04 3.1766407452502026e+04 0.0000000000000000e+00 3.1766407452502026e+04 -9.0283902708845417e+04 0.0000000000000000e+00 0.0000000000000000e+00 0.0000000000000000e+00 0.0000000000000000e+00  -4.0105056202902968e+04 8.6090649609408756e+03 0.0000000000000000e+00 8.6090649609408756e+03 -7.7707462874823366e+04 0.0000000000000000e+00 0.0000000000000000e+00 0.0000000000000000e+00 0.0000000000000000e+00  -3.5919780045659616e+04 1.3239640019427163e+04 0.0000000000000000e+00 1.3239640019427163e+04 -6.6975869674361282e+04 0.0000000000000000e+00 0.0000000000000000e+00 0.0000000000000000e+00 0.0000000000000000e+00  -7.5136249622965319e+04 9.8881363537839170e+03 0.0000000000000000e+00 9.8881363537839170e+03 -6.7971346079316994e+04 0.0000000000000000e+00 0.0000000000000000e+00 0.0000000000000000e+00 0.0000000000000000e+00  -7.6913657272040029e+04 1.2753921385513657e+04 0.0000000000000000e+00 1.2753921385513657e+04 -5.7047614414296098e+04 0.0000000000000000e+00 0.0000000000000000e+00 0.0000000000000000e+00 0.0000000000000000e+00  -8.0434858536718501e+04 1.6398980988360709e+04 0.0000000000000000e+00 1.6398980988360709e+04 -5.8768478917688946e+04 0.0000000000000000e+00 0.0000000000000000e+00 0.0000000000000000e+00 0.0000000000000000e+00  -1.1974298281676082e+05 2.6565545217631574e+04 0.0000000000000000e+00 2.6565545217631574e+04 -6.6100879789803104e+04 0.0000000000000000e+00 0.0000000000000000e+00 0.0000000000000000e+00 0.0000000000000000e+00  -7.4207703533235137e+04 2.9870786141361345e+03 0.0000000000000000e+00 2.9870786141361345e+03 -6.5754015324803244e+04 0.0000000000000000e+00 0.0000000000000000e+00 0.0000000000000000e+00 0.0000000000000000e+00  -6.9016030827793933e+04 2.1417641044899933e+03 0.0000000000000000e+00 2.1417641044899933e+03 -5.4007539424026101e+04 0.0000000000000000e+00 0.0000000000000000e+00 0.0000000000000000e+00 0.0000000000000000e+00  -7.0616700878459422e+04 6.7605300588405216e+03 0.0000000000000000e+00 6.7605300588405216e+03 -5.5001806980042624e+04 0.0000000000000000e+00 0.0000000000000000e+00 0.0000000000000000e+00 0.0000000000000000e+00  -8.3460289270002628e+04 8.2135246235519808e+03 0.0000000000000000e+00 8.2135246235519808e+03 -6.5141702375434259e+04 0.0000000000000000e+00 0.0000000000000000e+00 0.0000000000000000e+00 0.0000000000000000e+00  -7.7778786534005194e+04 -1.0296573935133027e+04 0.0000000000000000e+00 -1.0296573935133027e+04 -6.5512666020028119e+04 0.0000000000000000e+00 0.0000000000000000e+00 0.0000000000000000e+00 0.0000000000000000e+00  -7.1068355350061946e+04 -6.7192629756613478e+03 0.0000000000000000e+00 -6.7192629756613478e+03 -5.6501543654658060e+04 0.0000000000000000e+00 0.0000000000000000e+00 0.0000000000000000e+00 0.0000000000000000e+00  -6.8311285975872772e+04 -2.1761016021302048e+03 0.0000000000000000e+00 -2.1761016021302048e+03 -5.4196969430025965e+04 0.0000000000000000e+00 0.0000000000000000e+00 0.0000000000000000e+00 0.0000000000000000e+00  -7.3905116315438310e+04 -2.5880514460832624e+03 0.0000000000000000e+00 -2.5880514460832624e+03 -6.6172630201988621e+04 0.0000000000000000e+00 0.0000000000000000e+00 0.0000000000000000e+00 0.0000000000000000e+00  -1.1275543861257831e+05 -2.6103839737526829e+04 0.0000000000000000e+00 -2.6103839737526829e+04 -7.0038102625462911e+04 0.0000000000000000e+00 0.0000000000000000e+00 0.0000000000000000e+00 0.0000000000000000e+00  -7.6463032933932147e+04 -1.5774303024227798e+04 0.0000000000000000e+00 -1.5774303024227798e+04 -5.8771558684468859e+04 0.0000000000000000e+00 0.0000000000000000e+00 0.0000000000000000e+00 0.0000000000000000e+00  -7.4197484673498126e+04 -1.0179183056168258e+04 0.0000000000000000e+00 -1.0179183056168258e+04 -5.8101492893447547e+04 0.0000000000000000e+00 0.0000000000000000e+00 0.0000000000000000e+00 0.0000000000000000e+00  -8.1071424864910703e+04 -1.1314692690015536e+04 0.0000000000000000e+00 -1.1314692690015536e+04 -6.4290333491608566e+04 0.0000000000000000e+00 0.0000000000000000e+00 0.0000000000000000e+00 0.0000000000000000e+00  -3.4546739734235023e+04 -1.0433461523002023e+04 0.0000000000000000e+00 -1.0433461523002023e+04 -6.6766738507975417e+04 0.0000000000000000e+00 0.0000000000000000e+00 0.0000000000000000e+00 0.0000000000000000e+00  -3.1243813974127253e+04 -8.5895551999781983e+03 0.0000000000000000e+00 -8.5895551999781983e+03 -7.4211447215936452e+04 0.0000000000000000e+00 0.0000000000000000e+00 0.0000000000000000e+00 0.0000000000000000e+00  -8.1200158043371484e+04 -3.1198260933468711e+04 0.0000000000000000e+00 -3.1198260933468711e+04 -9.3003542189276952e+04 0.0000000000000000e+00 0.0000000000000000e+00 0.0000000000000000e+00 0.0000000000000000e+00  -3.4615074772767279e+04 -1.8851185775142771e+04 0.0000000000000000e+00 -1.8851185775142771e+04 -7.7393585302652878e+04 0.0000000000000000e+00 0.0000000000000000e+00 0.0000000000000000e+00 0.0000000000000000e+00  -2.2761868330262656e+04 -2.5369339529410554e+03 0.0000000000000000e+00 -2.5369339529410554e+03 -3.5620820464428143e+04 0.0000000000000000e+00 0.0000000000000000e+00 0.0000000000000000e+00 0.0000000000000000e+00  -1.9919166886579285e+04 -8.1247375892258151e+03 0.0000000000000000e+00 -8.1247375892258151e+03 -3.7101286838299435e+04 0.0000000000000000e+00 0.0000000000000000e+00 0.0000000000000000e+00 0.0000000000000000e+00  -4.8612728973511694e+04 -1.1660557498273840e+04 0.0000000000000000e+00 -1.1660557498273840e+04 -5.3098368784255472e+04 0.0000000000000000e+00 0.0000000000000000e+00 0.0000000000000000e+00 0.0000000000000000e+00  -3.0907023702676848e+04 -5.6911088115081575e+03 0.0000000000000000e+00 -5.6911088115081575e+03 -5.5585080938123712e+04 0.0000000000000000e+00 0.0000000000000000e+00 0.0000000000000000e+00 0.0000000000000000e+00  -1.1159631310880435e+04 -2.0816439660269671e+03 0.0000000000000000e+00 -2.0816439660269662e+03 -4.6186933126770346e+03 0.0000000000000000e+00 0.0000000000000000e+00 0.0000000000000000e+00 0.0000000000000000e+00  -9.9467444172055457e+03 -5.7838032394182164e+03 0.0000000000000000e+00 -5.7838032394182173e+03 -4.4814260341528370e+03 0.0000000000000000e+00 0.0000000000000000e+00 0.0000000000000000e+00 0.0000000000000000e+00  -2.5432755493381890e+04 -6.4015482841490848e+03 0.0000000000000000e+00 -6.4015482841490857e+03 -1.8395527366784550e+04 0.0000000000000000e+00 0.0000000000000000e+00 0.0000000000000000e+00 0.0000000000000000e+00  -1.7127149731048888e+04 -3.2154565517666097e+03 0.0000000000000000e+00 -3.2154565517666097e+03 -2.1206907817946652e+04 0.0000000000000000e+00 0.0000000000000000e+00 0.0000000000000000e+00 0.0000000000000000e+00  -2.6337832985354457e+03 -2.0032411478708161e+03 0.0000000000000000e+00 -2.0032411478708161e+03 2.2020494598274385e+04 0.0000000000000000e+00 0.0000000000000000e+00 0.0000000000000000e+00 0.0000000000000000e+00  -2.0429450135741693e+03 -4.1302955787920082e+03 0.0000000000000000e+00 -4.1302955787920082e+03 1.9686986085203946e+04 0.0000000000000000e+00 0.0000000000000000e+00 0.0000000000000000e+00 0.0000000000000000e+00  -7.7683236012286907e+03 -3.9275612999789978e+03 0.0000000000000000e+00 -3.9275612999789978e+03 1.0970526773887872e+04 0.0000000000000000e+00 0.0000000000000000e+00 0.0000000000000000e+00 0.0000000000000000e+00  -8.0195000891843347e+03 -2.3128319424460678e+03 0.0000000000000000e+00 -2.3128319424460674e+03 8.1888376548572669e+03 0.0000000000000000e+00 0.0000000000000000e+00 0.0000000000000000e+00 0.0000000000000000e+00  6.4453077292756852e+03 -9.6883436248626804e+03 0.0000000000000000e+00 -9.6883436248626804e+03 9.0110386729458041e+03 0.0000000000000000e+00 0.0000000000000000e+00 0.0000000000000000e+00 0.0000000000000000e+00  -1.7795818592548098e+03 -1.1833903983518494e+04 0.0000000000000000e+00 -1.1833903983518494e+04 -1.1801527749623001e+04 0.0000000000000000e+00 0.0000000000000000e+00 0.0000000000000000e+00 0.0000000000000000e+00  -2.3430983797669476e+04 -2.7245860047101589e+04 0.0000000000000000e+00 -2.7245860047101589e+04 -1.1857361816250635e+05 0.0000000000000000e+00 0.0000000000000000e+00 0.0000000000000000e+00 0.0000000000000000e+00  -7.3072106159040501e+04 -4.4022114251824394e+04 0.0000000000000000e+00 -4.4022114251824394e+04 -1.5796933721907917e+05 0.0000000000000000e+00 0.0000000000000000e+00 0.0000000000000000e+00 0.0000000000000000e+00  -1.2307478675935743e+05 -4.1114008322691981e+04 0.0000000000000000e+00 -4.1114008322691981e+04 -1.4207048272855021e+05 0.0000000000000000e+00 0.0000000000000000e+00 0.0000000000000000e+00 0.0000000000000000e+00  -1.4856145467033607e+05 -4.2535530829626936e+04 0.0000000000000000e+00 -4.2535530829626936e+04 -4.3921491536487061e+04 0.0000000000000000e+00 0.0000000000000000e+00 0.0000000000000000e+00 0.0000000000000000e+00  -2.6040758776035051e+04 -2.0735597866644363e+04 0.0000000000000000e+00 -2.0735597866644363e+04 -5.1537088763480497e+04 0.0000000000000000e+00 0.0000000000000000e+00 0.0000000000000000e+00 0.0000000000000000e+00  -3.5371514893133435e+03 -1.0751838904078141e+02 0.0000000000000000e+00 -1.0751838904078140e+02 3.5050234205336696e+04 0.0000000000000000e+00 0.0000000000000000e+00 0.0000000000000000e+00 0.0000000000000000e+00  5.5577512080269253e+03 -4.7254083495537188e+03 0.0000000000000000e+00 -4.7254083495537188e+03 1.5465556713669492e+04 0.0000000000000000e+00 0.0000000000000000e+00 0.0000000000000000e+00 0.0000000000000000e+00  5.0517193876168149e+03 -6.2917359102831406e+03 0.0000000000000000e+00 -6.2917359102831406e+03 2.1140014835726881e+04 0.0000000000000000e+00 0.0000000000000000e+00 0.0000000000000000e+00 0.0000000000000000e+00  -6.5430194379840519e+04 2.2158414965377233e+04 0.0000000000000000e+00 2.2158414965377233e+04 -4.1682997548188294e+04 0.0000000000000000e+00 0.0000000000000000e+00 0.0000000000000000e+00 0.0000000000000000e+00  -1.9617322093986522e+05 3.9123532311581068e+04 0.0000000000000000e+00 3.9123532311581068e+04 -3.9642079781140659e+04 0.0000000000000000e+00 0.0000000000000000e+00 0.0000000000000000e+00 0.0000000000000000e+00  -1.4395221884869665e+05 3.9024801285904039e+04 0.0000000000000000e+00 3.9024801285904039e+04 -1.1100807627133497e+05 0.0000000000000000e+00 0.0000000000000000e+00 0.0000000000000000e+00 0.0000000000000000e+00  -6.5234480812684626e+04 3.0377475411042484e+04 0.0000000000000000e+00 3.0377475411042484e+04 -1.3196150352271664e+05 0.0000000000000000e+00 0.0000000000000000e+00 0.0000000000000000e+00 0.0000000000000000e+00  -3.0613723477092684e+04 6.7889951583291368e+03 0.0000000000000000e+00 6.7889951583291368e+03 -1.1040080973330875e+05 0.0000000000000000e+00 0.0000000000000000e+00 0.0000000000000000e+00 0.0000000000000000e+00  -3.0130271213930067e+04 -9.9985579314540500e+03 0.0000000000000000e+00 -9.9985579314540500e+03 -1.2702666861072254e+05 0.0000000000000000e+00 0.0000000000000000e+00 0.0000000000000000e+00 0.0000000000000000e+00  -4.2640626407867283e+04 -2.3428040523657604e+04 0.0000000000000000e+00 -2.3428040523657604e+04 -1.2116293173043481e+05 0.0000000000000000e+00 0.0000000000000000e+00 0.0000000000000000e+00 0.0000000000000000e+00  -1.4513264579739829e+05 -3.6181126820200618e+04 0.0000000000000000e+00 -3.6181126820200618e+04 -1.0852942492991626e+05 0.0000000000000000e+00 0.0000000000000000e+00 0.0000000000000000e+00 0.0000000000000000e+00  -1.9722122149800093e+05 -3.9404166061680327e+04 0.0000000000000000e+00 -3.9404166061680327e+04 -3.9312024799598461e+04 0.0000000000000000e+00 0.0000000000000000e+00 0.0000000000000000e+00 0.0000000000000000e+00  -6.5735379119908030e+04 -2.1276670330449087e+04 0.0000000000000000e+00 -2.1276670330449087e+04 -4.0493033596023372e+04 0.0000000000000000e+00 0.0000000000000000e+00 0.0000000000000000e+00 0.0000000000000000e+00  -4.9854852421306241e+04 3.6575545174403916e+04 0.0000000000000000e+00 3.6575545174403916e+04 -1.3901777923450476e+05 0.0000000000000000e+00 0.0000000000000000e+00 0.0000000000000000e+00 0.0000000000000000e+00  -1.1801125884227005e+04 2.5034305973475573e+04 0.0000000000000000e+00 2.5034305973475573e+04 -1.4032484839415422e+05 0.0000000000000000e+00 0.0000000000000000e+00 0.0000000000000000e+00 0.0000000000000000e+00  -6.9897717346672698e+02 1.2299215617261752e+04 0.0000000000000000e+00 1.2299215617261752e+04 -9.9764947683805858e+03 0.0000000000000000e+00 0.0000000000000000e+00 0.0000000000000000e+00 0.0000000000000000e+00  7.1956154299804912e+03 1.0025919395566012e+04 0.0000000000000000e+00 1.0025919395566012e+04 5.1612306455469343e+03 0.0000000000000000e+00 0.0000000000000000e+00 0.0000000000000000e+00 0.0000000000000000e+00  3.8668878930676156e+03 6.3124651875276841e+03 0.0000000000000000e+00 6.3124651875276841e+03 2.2540406435462122e+04 0.0000000000000000e+00 0.0000000000000000e+00 0.0000000000000000e+00 0.0000000000000000e+00  5.5323858510397731e+03 5.0304966842256399e+03 0.0000000000000000e+00 5.0304966842256399e+03 1.6560237902208417e+04 0.0000000000000000e+00 0.0000000000000000e+00 0.0000000000000000e+00 0.0000000000000000e+00  -2.9157585273351006e+03 3.6877852130021694e+02 0.0000000000000000e+00 3.6877852130021694e+02 3.5863605162156680e+04 0.0000000000000000e+00 0.0000000000000000e+00 0.0000000000000000e+00 0.0000000000000000e+00  -2.9618805424956878e+04 2.4462864584715007e+04 0.0000000000000000e+00 2.4462864584715015e+04 -5.3453486278765347e+04 0.0000000000000000e+00 0.0000000000000000e+00 0.0000000000000000e+00 0.0000000000000000e+00  -1.4335036490050197e+05 4.1021687724049014e+04 0.0000000000000000e+00 4.1021687724049014e+04 -4.2126999370054771e+04 0.0000000000000000e+00 0.0000000000000000e+00 0.0000000000000000e+00 0.0000000000000000e+00  -1.2515536192297218e+05 4.1196128014068796e+04 0.0000000000000000e+00 4.1196128014068796e+04 -1.4533670449817448e+05 0.0000000000000000e+00 0.0000000000000000e+00 0.0000000000000000e+00 0.0000000000000000e+00  8.5783617641125704e+02 3.5901760446613810e+02 0.0000000000000000e+00 3.5901760446613810e+02 6.7965321676817450e+02 0.0000000000000000e+00 0.0000000000000000e+00 0.0000000000000000e+00 0.0000000000000000e+00  6.0964711963048353e+02 -3.0667400345963790e+02 0.0000000000000000e+00 -3.0667400345963785e+02 5.8264343703312272e+02 0.0000000000000000e+00 0.0000000000000000e+00 0.0000000000000000e+00 0.0000000000000000e+00  -9.2265593999956880e+04 1.8267520745571659e+04 0.0000000000000000e+00 1.8267520745571659e+04 -2.7787465364729764e+04 0.0000000000000000e+00 0.0000000000000000e+00 0.0000000000000000e+00 0.0000000000000000e+00  9.5036981570507429e+04 4.1808896538995089e+02 0.0000000000000000e+00 4.1808896538995089e+02 -7.7214080740642476e+03 0.0000000000000000e+00 0.0000000000000000e+00 0.0000000000000000e+00 0.0000000000000000e+00  -5.8082529262180018e+04 -2.0006871775505628e+04 0.0000000000000000e+00 -2.0006871775505628e+04 -2.9630277649172800e+04 0.0000000000000000e+00 0.0000000000000000e+00 0.0000000000000000e+00 0.0000000000000000e+00  -2.7027564740032835e+03 -1.1118254947592454e+03 0.0000000000000000e+00 -1.1118254947592454e+03 2.4860858290854805e+04 0.0000000000000000e+00 0.0000000000000000e+00 0.0000000000000000e+00 0.0000000000000000e+00  -1.0987801233297778e+04 1.7038883190267145e+04 0.0000000000000000e+00 1.7038883190267145e+04 -4.1155952135199652e+04 0.0000000000000000e+00 0.0000000000000000e+00 0.0000000000000000e+00 0.0000000000000000e+00  -1.0945353843856881e+04 -1.7277614952938344e+04 0.0000000000000000e+00 -1.7277614952938344e+04 -4.0400188569509752e+04 0.0000000000000000e+00 0.0000000000000000e+00 0.0000000000000000e+00 0.0000000000000000e+00  -8.1661491345394912e+04 -7.2016433693410056e+02 0.0000000000000000e+00 -7.2016433693410056e+02 -9.2305359315983704e+04 0.0000000000000000e+00 0.0000000000000000e+00 0.0000000000000000e+00 0.0000000000000000e+00  -1.6169463324483229e+04 1.6349197720783029e+03 0.0000000000000000e+00 1.6349197720783029e+03 -2.3668899613741651e+04 0.0000000000000000e+00 0.0000000000000000e+00 0.0000000000000000e+00 0.0000000000000000e+00  -9.5713190386387621e+04 -1.9016283981279776e+04 0.0000000000000000e+00 -1.9016283981279776e+04 -2.9188914193907694e+04 0.0000000000000000e+00 0.0000000000000000e+00 0.0000000000000000e+00 0.0000000000000000e+00  7.0637332333165214e+03 -2.4786226003022075e+03 0.0000000000000000e+00 -2.4786226003022070e+03 -3.1806386595732038e+03 0.0000000000000000e+00 0.0000000000000000e+00 0.0000000000000000e+00 0.0000000000000000e+00  -5.7326415550705206e+04 4.4718983940116698e+02 0.0000000000000000e+00 4.4718983940116698e+02 -4.9084630878863049e+04 0.0000000000000000e+00 0.0000000000000000e+00 0.0000000000000000e+00 0.0000000000000000e+00  -2.9679445913599438e+03 9.9846977658579192e+02 0.0000000000000000e+00 9.9846977658579192e+02 2.5233076003839251e+04 0.0000000000000000e+00 0.0000000000000000e+00 0.0000000000000000e+00 0.0000000000000000e+00  -6.2698175372987062e+04 2.1338317693019675e+04 0.0000000000000000e+00 2.1338317693019675e+04 -3.1908881506741920e+04 0.0000000000000000e+00 0.0000000000000000e+00 0.0000000000000000e+00 0.0000000000000000e+00  -1.5579024037849400e+04 -1.1001780977096228e+03 0.0000000000000000e+00 -1.1001780977096228e+03 -2.5715678399366479e+04 0.0000000000000000e+00 0.0000000000000000e+00 0.0000000000000000e+00 0.0000000000000000e+00  -7.1706858611574244e+03 4.9999628773310995e+01 0.0000000000000000e+00 4.99996287733109