<?xml version="1.0"?>
<VTKFile type="UnstructuredGrid"  version="0.1"  >
<UnstructuredGrid>
<Piece  NumberOfPoints="1035" NumberOfCells="1917">
<Points>
<DataArray  type="Float64"  NumberOfComponents="3"  format="ascii">1.925 0.05625 0  1.925 0.04375 0  1.975 0.04375 0  1.975 0.05625 0  1.825 0.05625 0  1.825 0.04375 0  1.875 0.04375 0  1.875 0.05625 0  1.725 0.05625 0  1.725 0.04375 0  1.775 0.04375 0  1.775 0.05625 0  1.625 0.05625 0  1.625 0.04375 0  1.675 0.04375 0  1.675 0.05625 0  1.525 0.05625 0  1.525 0.04375 0  1.575 0.04375 0  1.575 0.05625 0  1.225 0.45625 0  1.225 0.44375 0  1.275 0.44375 0  1.275 0.45625 0  1.125 0.45625 0  1.125 0.44375 0  1.175 0.44375 0  1.175 0.45625 0  1.025 0.45625 0  1.025 0.44375 0  1.075 0.44375 0  1.075 0.45625 0  0.9249999999999999 0.45625 0  0.9249999999999999 0.44375 0  0.975 0.44375 0  0.975 0.45625 0  0.825 0.45625 0  0.825 0.44375 0  0.875 0.44375 0  0.875 0.45625 0  0.725 0.45625 0  0.725 0.44375 0  0.775 0.44375 0  0.775 0.45625 0  0.425 0.05625 0  0.425 0.04375 0  0.475 0.04375 0  0.475 0.05625 0  0.325 0.05625 0  0.325 0.04375 0  0.375 0.04375 0  0.375 0.05625 0  0.225 0.05625 0  0.225 0.04375 0  0.275 0.04375 0  0.275 0.05625 0  0.125 0.05625 0  0.125 0.04375 0  0.175 0.04375 0  0.175 0.05625 0  0.025 0.05625 0  0.025 0.04375 0  0.07500000000000001 0.04375 0  0.07500000000000001 0.05625 0  0.15 -0.05 0  0.15 -0.1 0  0.35 -0.1 0  0.35 -0.05 0  0.3646446609406726 -0.01464466094067262 0  0.4 0 0  0.5 0 0  0.5 0.1 0  0 0.1 0  0 0 0  0.1 0 0  0.1353553390593274 -0.01464466094067263 0  0.7 0.5 0  0.7 0.4 0  1.3 0.4 0  1.3 0.5 0  1.15 0.5 0  1.114644660940673 0.5146446609406726 0  1.1 0.55 0  1.1 0.6 0  0.9 0.6 0  0.9 0.55 0  0.8853553390593274 0.5146446609406726 0  0.85 0.5 0  1.65 -0.05 0  1.65 -0.1 0  1.85 -0.1 0  1.85 -0.05 0  1.864644660940673 -0.01464466094067262 0  1.9 0 0  2 0 0  2 0.1 0  1.5 0.1 0  1.5 0 0  1.6 0 0  1.635355339059327 -0.01464466094067263 0  0 0.5 0  2 0.5 0  1.75 0.1 0  0.5 0.05 0  0 0.05 0  1 0.4 0  0.7 0.45 0  1.3 0.45 0  1.225 0.5 0  0.7749999999999999 0.5 0  2 0.05 0  0.25 0.1 0  1.5 0.05 0  1.875 0.1 0  1.625 0.1 0  1 0 0  1.15 0.4 0  0.85 0.4 0  0.125 0.1 0  0.375 0.1 0  1.9375 0.1 0  1.8125 0.1 0  1.5625 0.1 0  1.6875 0.1 0  1.225 0.4 0  1.075 0.4 0  0.7749999999999999 0.4 0  0.925 0.4 0  0.0625 0.1 0  0.1875 0.1 0  0.4375 0.1 0  0.3125 0.1 0  0.35 0.5 0  1.65 0.5 0  0.75 0 0  1.25 0 0  0.175 0.5 0  0 0.3 0  1.825 0.5 0  2 0.3 0  0.4889999999999999 0.3240000000000001 0  0.8875 0.1859375 0  1.1125 0.1859375 0  1.511 0.324 0  0.28125 0.3046875 0  1.71875 0.3046875 0  1.317839363170347 0.1952262421135645 0  0.6824922989623865 0.1937307474059662 0  0.5249999999999999 0.5 0  1.475 0.5 0  0.1397595137420719 0.3542729254756871 0  1.858492268041237 0.2493798324742268 0  1.891114090996194 0.3812873296216695 0  0.15625 0.2257508917777052 0  0.625 0 0  1.375 0 0  0.40625 0.2251049107142857 0  1.607216430534997 0.2319583619687038 0  0.875 0 0  1.125 0 0  1.211555754201263 0.2704722952372923 0  0.8125 0.2831147354014599 0  0.9999999999999998 0.2634067062043797 0  0.5562349522048834 0.2150316271172041 0  0.6357611659109287 0.3015748226014914 0  1.384685972003155 0.3042136854298106 0  1.435339436767618 0.1981521250340491 0  1.218344435556106 0.1203999292347677 0  0.8125 0.09759059873949578 0  0.5862510293299451 0.404064301327404 0  0.9999999999999998 0.1270023634453781 0  1.5625 0.5 0  1.620981129822047 0.3800291076973605 0  0.3790188701779529 0.3800291076973606 0  0.2379041800602883 0.4076636239527968 0  1.7375 0.5 0  1.104587466335882 0.2948672842486216 0  1.434386643784329 0.400010904410431 0  0 0.2 0  2 0.2 0  1.378820276847793 0.1070997486680121 0  0.2576904130619342 0.2035551373187887 0  1.706325764667107 0.2018550836386096 0  1.75 -0.1 0  1 0.6 0  0.25 -0.1 0  0.6051071338676985 0.1198782539308636 0  0.7097341915851944 0.09459620728155076 0  0 0.4 0  0.08749999999999999 0.5 0  2 0.4 0  1.716919851969401 0.4034194442109375 0  0.9095587743115197 0.0912030448564982 0  0.4374999999999999 0.5 0  1.810111645358113 0.3313323363856588 0  0.9093239231628456 0.3025056842272159 0  1.12855529710778 0.09362792963749789 0  0.7927646158614563 0.1903526670704778 0  1.535200406348388 0.4124534322332843 0  0.4647995936516121 0.4124534322332843 0  0.7262554107726816 0.3126881060391923 0  1.29385393118661 0.3092370156738959 0  1.526617204200245 0.1879094309509875 0  1.9125 0.5 0  0.6124999999999999 0.5 0  1.3875 0.5 0  0.2625 0.5 0  0.08732005301128176 0.2822255373231005 0  1.813802944936616 0.4159974360455985 0  1.90625 0.179055426762338 0  1.295480105083921 0.07631904201107265 0  1.776173416646069 0.2455828324617562 0  1.052124204819729 0.06350118172268913 0  0.08314215524143959 0.1824325970258998 0  0.3645958242513654 0.2976386438076649 0  0.34375 0.1742613782254498 0  0.46875 0.1742613782254498 0  1.8277001247614 0.1770902144672231 0  0.08259792326838619 0.4160080671401621 0  1.1875 0 0  1.939614960150005 0.25 0  0.4876547669691238 0.2479433516107648 0  1.19092061344538 0.1943491133639654 0  0.2129874694679908 0.3365645567605458 0  0.1567097967617912 0.4272984760088865 0  1.588209480813283 0.3084004115790788 0  0.5592194988901882 0.2920997540876868 0  1.0375 0.3327166336400727 0  1.487637908104215 0.2523776924929376 0  1.027901785714286 0.5308035714285715 0  0.2779017857142857 -0.03080357142857143 0  1.777901785714286 -0.03080357142857144 0  0.3151653224076805 0.4280790720625429 0  1.168756962162846 0.3295234200864151 0  1.367191293782823 0.425 0  0.3179885097909652 0.2428185946506164 0  0.05525362682807256 0.3480682903641584 0  0.2178040625531614 0.2641665749896864 0  1.931284073038049 0.3215247493816797 0  1.592320938634953 0.1634503048594586 0  0.7391107863118056 0.2404300893851613 0  0.9640418144285923 0.1952045348248789 0  1.03828311171483 0.1907665338898573 0  0.5625 0 0  1.4375 0 0  1.434406041305029 0.06792994836871344 0  0.4047091778037926 0.4417451657763865 0  1.60625 0.4470873374280713 0  1.652835268961804 0.2838852861125848 0  0.968520705076875 0.3383633061432367 0  1.938087483892823 0.4341077984062202 0  1.070126821264438 0.1298444448878155 0  1.146027325928063 0.2431251569917195 0  1.443238177928612 0.1329810756186796 0  1.273619820642345 0.2454517928151241 0  1.8727955424459 0.4466676197704867 0  0.144720914794739 0.161857581637346 0  0.1516864507370299 0.2904843017281448 0  1.714723903403643 -0.04555219319271324 0  0.9647239034036433 0.5455521931927132 0  0.211202019110897 -0.0220866152887176 0  0.4328041531634848 0.2869537291168379 0  0.9728298217570102 0.063501181722689 0  0.5451284530929481 0.1491997399535159 0  0.6162136329796337 0.1857101410945519 0  0.2895080944586197 0.3687744429477401 0  1.341750750059536 0.3515832389346363 0  1.375641205532954 0.234767575309129 0  1.444751559540476 0.3338422273502067 0  1.37688907990521 0.1709251542413986 0  0.59375 0.05640396532218669 0  0.6583769606067219 0.05535098291689117 0  1.254510715686016 0.1758716914625949 0  0.7365017523093009 0.1552621254080563 0  1.233224213042039 0.3312123716681958 0  0.5236435083132435 0.3810155563421335 0  0.21875 0.1543838771604025 0  0.40625 0.1612687207586738 0  1.0625 0 0  0.8125 0 0  1.3125 0 0  0.9375 0 0  0.6875 0 0  1.21875 0.0561451531914653 0  1.765950179549217 0.1842639624677329 0  1.67831342925737 0.3533208805417159 0  0.4323587890178361 0.3487744537060739 0  1.078636941959972 0.2382299973669808 0  0.8125 0.3475728821662615 0  0.8420063834532494 0.228356758811999 0  0.6372101262555863 0.441680220947276 0  1.870505629542844 0.3240535515644318 0  1.550192759190401 0.2583637173885714 0  1.32193695807607 0.1328999195289147 0  0.9197592292763459 0.2402249515808653 0  1.64776864428658 0.1872678527852764 0  0.6857873721657025 0.2682159103169717 0  0 0.25 0  0.5373427190457616 0.4403593316171924 0  1.661084891520015 0.4239861270220243 0  1.156442100699449 0.1460292740584435 0  0 0.15 0  2 0.15 0  1.769802196712746 0.3755027993310504 0  0 0.45 0  0.04375 0.5 0  0.6030642503494791 0.2518099652148797 0  0.6763237910390439 0.3452768106841519 0  0.931147178445411 0.1461652756982713 0  0.2887375218332675 0.1537053706244743 0  1.558177316710844 0.3586297973800502 0  0.84375 0.04879529936974789 0  0.7621386337634271 0.0610348019982157 0  0.8384285265414047 0.1515873764702156 0  1.428555275697543 0.263188023835919 0  0.5711756747636345 0.3484585583856121 0  1.1125 0.3538238594862959 0  0.8705255601152057 0.3456934700182137 0  1.760838845163471 0.4445438062629496 0  0.2060275862872002 0.4535426186917414 0  1.723062444516319 0.1487405354022165 0  1.163389069096715 0.05018931811557627 0  1.327089695897519 0.2635919124818841 0  1.948044122097146 0.3761717807464886 0  1.415535555918383 0.4521588314281399 0  1.34375 0.04702637925968595 0  1.488309400497656 0.3777453016672654 0  1.471852517802967 0.4430357668431186 0  1.69375 0.5 0  0.6578964173371418 0.109206090398416 0  0.6242654800244544 0.3639117255960667 0  0.05567121248445504 0.2335666116841588 0  1.51875 0.5 0  0.1893916261844855 0.3847493057979278 0  0.48125 0.5 0  0.55621535123838 0.09587303205156968 0  1.396253090597469 0.3601413795122775 0  1.270205431019786 0.1261134456089319 0  0.2049308263849371 0.205332512972754 0  1.698189605041017 0.2550048538614296 0  0.3254938479686495 0.3315618715221949 0  1.05408962819384 0.283741034291944 0  0.2679479229437713 0.2537349122604314 0  1.898812753378263 0.2811963544224856 0  0.1057967071592966 0.2275495703332606 0  1.34375 0.5 0  1.633506078616799 0.3303699666199942 0  0.13125 0.5 0  0.8762042476645896 0.2649417942548087 0  1.8 -0.1 0  1.05 0.6 0  1.55 0 0  1.95 0 0  1.7 -0.1 0  0 0.35 0  2 0.35 0  0.05 0 0  0.3 -0.1 0  2 0.25 0  0.45 0 0  2 0.45 0  0.95 0.6 0  0.2 -0.1 0  0.7374999999999999 0.4 0  0.7611510190562684 0.3504690848007062 0  1.491426622286366 0.1505801380121626 0  0.5865340670064162 0.4555456997138927 0  1.711525094112363 0.4531947547604568 0  0.9523991700749173 0.2777084606998086 0  0.9196963620594245 0.3508453367496864 0  0.6498845134369121 0.2324887151424513 0 
[...]
<PointData  Tensors="f_268"> 
<DataArray  type="Float64"  Name="f_268"  NumberOfComponents="9" format="ascii">-2.9448852982164003e+03 2.6765535430716423e+03 0.0000000000000000e+00 2.6765535430716423e+03 4.8151245936920714e+03 0.0000000000000000e+00 0.0000000000000000e+00 0.0000000000000000e+00 0.0000000000000000e+00  6.5366756854535388e+03 4.6637356703619898e+03 0.0000000000000000e+00 4.6637356703619898e+03 8.9765528020123838e+03 0.0000000000000000e+00 0.0000000000000000e+00 0.0000000000000000e+00 0.0000000000000000e+00  -7.5403515574736855e+02 1.1314277556725544e+03 0.0000000000000000e+00 1.1314277556725544e+03 2.4001385068424906e+03 0.0000000000000000e+00 0.0000000000000000e+00 0.0000000000000000e+00 0.0000000000000000e+00  1.8002342353432286e+03 1.6729408575585544e+03 0.0000000000000000e+00 1.6729408575585544e+03 5.0557688245758491e+03 0.0000000000000000e+00 0.0000000000000000e+00 0.0000000000000000e+00 0.0000000000000000e+00  -9.5880231089052668e+03 1.0571342426778738e+03 0.0000000000000000e+00 1.0571342426778738e+03 -7.3066158606214867e+03 0.0000000000000000e+00 0.0000000000000000e+00 0.0000000000000000e+00 0.0000000000000000e+00  -3.2992880780855749e+03 -4.6755581148558088e+02 0.0000000000000000e+00 -4.6755581148558099e+02 -8.3805464743495286e+03 0.0000000000000000e+00 0.0000000000000000e+00 0.0000000000000000e+00 0.0000000000000000e+00  -6.5586117011100748e+02 3.6687376940741078e+03 0.0000000000000000e+00 3.6687376940741078e+03 8.9704388325287637e+03 0.0000000000000000e+00 0.0000000000000000e+00 0.0000000000000000e+00 0.0000000000000000e+00  -3.8768508638037001e+03 1.7667183519363809e+03 0.0000000000000000e+00 1.7667183519363809e+03 8.4603086553421890e+03 0.0000000000000000e+00 0.0000000000000000e+00 0.0000000000000000e+00 0.0000000000000000e+00  -2.2100442647538919e+04 7.8502715561599634e+03 0.0000000000000000e+00 7.8502715561599634e+03 -4.4824038028031449e+04 0.0000000000000000e+00 0.0000000000000000e+00 0.0000000000000000e+00 0.0000000000000000e+00  -2.2963224431653442e+04 9.2828067395835819e+02 0.0000000000000000e+00 9.2828067395835819e+02 -3.9740398211661646e+04 0.0000000000000000e+00 0.0000000000000000e+00 0.0000000000000000e+00 0.0000000000000000e+00  -1.8463972380185671e+04 5.6847464411212404e+03 0.0000000000000000e+00 5.6847464411212404e+03 -2.6704122061794471e+04 0.0000000000000000e+00 0.0000000000000000e+00 0.0000000000000000e+00 0.0000000000000000e+00  -1.0091809790494739e+04 -7.7760743372450577e+02 0.0000000000000000e+00 -7.7760743372450577e+02 -2.4512150556793480e+04 0.0000000000000000e+00 0.0000000000000000e+00 0.0000000000000000e+00 0.0000000000000000e+00  -4.1040508738286728e+04 2.2387412060794581e+04 0.0000000000000000e+00 2.2387412060794581e+04 -6.2817651643168363e+04 0.0000000000000000e+00 0.0000000000000000e+00 0.0000000000000000e+00 0.0000000000000000e+00  -3.7393652569143320e+04 1.4876038064297098e+04 0.0000000000000000e+00 1.4876038064297098e+04 -5.5057410567888248e+04 0.0000000000000000e+00 0.0000000000000000e+00 0.0000000000000000e+00 0.0000000000000000e+00  -5.2714227500704998e+04 1.3803372696561544e+04 0.0000000000000000e+00 1.3803372696561544e+04 -6.2398454087260659e+04 0.0000000000000000e+00 0.0000000000000000e+00 0.0000000000000000e+00 0.0000000000000000e+00  -1.2352492085424003e+04 1.2256886426336143e+03 0.0000000000000000e+00 1.2256886426336143e+03 -5.4595074665782944e+04 0.0000000000000000e+00 0.0000000000000000e+00 0.0000000000000000e+00 0.0000000000000000e+00  -3.7279332498622585e+04 1.6353783168164233e+04 0.0000000000000000e+00 1.6353783168164233e+04 -1.3096562514775038e+04 0.0000000000000000e+00 0.0000000000000000e+00 0.0000000000000000e+00 0.0000000000000000e+00  -1.9853266147270522e+04 4.7325808538810625e+03 0.0000000000000000e+00 4.7325808538810625e+03 9.6873569118781893e+02 0.0000000000000000e+00 0.0000000000000000e+00 0.0000000000000000e+00 0.0000000000000000e+00  -6.2433577372636057e+04 2.2574918391794239e+04 0.0000000000000000e+00 2.2574918391794239e+04 -3.2984357223395091e+04 0.0000000000000000e+00 0.0000000000000000e+00 0.0000000000000000e+00 0.0000000000000000e+00  -2.3772493312220842e+04 9.6495822114782659e+03 0.0000000000000000e+00 9.6495822114782659e+03 -1.8902339480784372e+04 0.0000000000000000e+00 0.0000000000000000e+00 0.0000000000000000e+00 0.0000000000000000e+00  -9.1308440307516823e+04 1.6728190281864459e+04 0.0000000000000000e+00 1.6728190281864459e+04 -8.6537440771681031e+03 0.0000000000000000e+00 0.0000000000000000e+00 0.0000000000000000e+00 0.0000000000000000e+00  -7.3815286638193953e+04 -1.9905021190487716e+03 0.0000000000000000e+00 -1.9905021190487716e+03 -2.2032912513001020e+03 0.0000000000000000e+00 0.0000000000000000e+00 0.0000000000000000e+00 0.0000000000000000e+00  -6.7493222322914386e+04 1.7901555690906775e+04 0.0000000000000000e+00 1.7901555690906775e+04 -6.4030056159689857e+03 0.0000000000000000e+00 0.0000000000000000e+00 0.0000000000000000e+00 0.0000000000000000e+00  -5.9630722600466259e+04 -5.1933488682545876e+03 0.0000000000000000e+00 -5.1933488682545876e+03 1.8414134469819874e+03 0.0000000000000000e+00 0.0000000000000000e+00 0.0000000000000000e+00 0.0000000000000000e+00  -1.0379560180141478e+05 2.8433623150617688e+04 0.0000000000000000e+00 2.8433623150617688e+04 -6.3303052487191664e+04 0.0000000000000000e+00 0.0000000000000000e+00 0.0000000000000000e+00 0.0000000000000000e+00  -5.8633923439294194e+04 4.5736649745283348e+03 0.0000000000000000e+00 4.5736649745283348e+03 -4.6526294516346796e+04 0.0000000000000000e+00 0.0000000000000000e+00 0.0000000000000000e+00 0.0000000000000000e+00  -7.8569931802627441e+04 2.2090775200910495e+04 0.0000000000000000e+00 2.2090775200910495e+04 -3.1460854878427355e+04 0.0000000000000000e+00 0.0000000000000000e+00 0.0000000000000000e+00 0.0000000000000000e+00  -8.4466800985780035e+04 2.6641901619726364e+03 0.0000000000000000e+00 2.6641901619726364e+03 -5.4924649916937042e+03 0.0000000000000000e+00 0.0000000000000000e+00 0.0000000000000000e+00 0.0000000000000000e+00  -8.6010575179107822e+04 1.4902200287472067e+04 0.0000000000000000e+00 1.4902200287472067e+04 -5.9714469022294797e+04 0.0000000000000000e+00 0.0000000000000000e+00 0.0000000000000000e+00 0.0000000000000000e+00  -6.7875076335020072e+04 -9.8955395673373714e+03 0.0000000000000000e+00 -9.8955395673373714e+03 -5.8397354508234130e+04 0.0000000000000000e+00 0.0000000000000000e+00 0.0000000000000000e+00 0.0000000000000000e+00  -8.1226688265401783e+04 2.1399520307336355e+04 0.0000000000000000e+00 2.1399520307336355e+04 -6.3881109901465752e+04 0.0000000000000000e+00 0.0000000000000000e+00 0.0000000000000000e+00 0.0000000000000000e+00  -7.9064515311920957e+04 -1.7285105109364092e+03 0.0000000000000000e+00 -1.7285105109364085e+03 -5.8599203355282356e+04 0.0000000000000000e+00 0.0000000000000000e+00 0.0000000000000000e+00 0.0000000000000000e+00  -8.2011582222714060e+04 1.9374023704535421e+03 0.0000000000000000e+00 1.9374023704535421e+03 -5.5270707737269273e+04 0.0000000000000000e+00 0.0000000000000000e+00 0.0000000000000000e+00 0.0000000000000000e+00  -8.2981354506537435e+04 -2.2110237171702185e+04 0.0000000000000000e+00 -2.2110237171702185e+04 -6.4693807566210002e+04 0.0000000000000000e+00 0.0000000000000000e+00 0.0000000000000000e+00 0.0000000000000000e+00  -6.6675367890611757e+04 9.6144852184162301e+03 0.0000000000000000e+00 9.6144852184162301e+03 -5.7631968221241768e+04 0.0000000000000000e+00 0.0000000000000000e+00 0.0000000000000000e+00 0.0000000000000000e+00  -9.2161760140233469e+04 -1.5816296087977096e+04 0.0000000000000000e+00 -1.5816296087977096e+04 -6.1534881729513072e+04 0.0000000000000000e+00 0.0000000000000000e+00 0.0000000000000000e+00 0.0000000000000000e+00  -8.3945157695311151e+04 -2.8345238658963049e+03 0.0000000000000000e+00 -2.8345238658963049e+03 -5.9059815435086412e+03 0.0000000000000000e+00 0.0000000000000000e+00 0.0000000000000000e+00 0.0000000000000000e+00  -7.7728712079583915e+04 -2.2407051559056294e+04 0.0000000000000000e+00 -2.2407051559056294e+04 -3.2441410747662187e+04 0.0000000000000000e+00 0.0000000000000000e+00 0.0000000000000000e+00 0.0000000000000000e+00  -5.8510190768354849e+04 -4.3900798757785269e+03 0.0000000000000000e+00 -4.3900798757785269e+03 -4.6089263995265952e+04 0.0000000000000000e+00 0.0000000000000000e+00 0.0000000000000000e+00 0.0000000000000000e+00  -1.0475381583522211e+05 -2.9516302870408199e+04 0.0000000000000000e+00 -2.9516302870408199e+04 -6.4287610038937702e+04 0.0000000000000000e+00 0.0000000000000000e+00 0.0000000000000000e+00 0.0000000000000000e+00  -5.8645579156541906e+04 4.7789908244848448e+03 0.0000000000000000e+00 4.7789908244848448e+03 1.1851190313075826e+03 0.0000000000000000e+00 0.0000000000000000e+00 0.0000000000000000e+00 0.0000000000000000e+00  -6.8178034456088717e+04 -1.8875349255507404e+04 0.0000000000000000e+00 -1.8875349255507404e+04 -5.6542380422960332e+03 0.0000000000000000e+00 0.0000000000000000e+00 0.0000000000000000e+00 0.0000000000000000e+00  -7.3443127714651127e+04 1.5916257798954725e+03 0.0000000000000000e+00 1.5916257798954725e+03 -2.6262987219304587e+03 0.0000000000000000e+00 0.0000000000000000e+00 0.0000000000000000e+00 0.0000000000000000e+00  -9.1488776010143876e+04 -1.7605582989383976e+04 0.0000000000000000e+00 -1.7605582989383976e+04 -8.1125527057782383e+03 0.0000000000000000e+00 0.0000000000000000e+00 0.0000000000000000e+00 0.0000000000000000e+00  -2.3715582232732868e+04 -9.5585649765231974e+03 0.0000000000000000e+00 -9.5585649765231974e+03 -1.8127651890137047e+04 0.0000000000000000e+00 0.0000000000000000e+00 0.0000000000000000e+00 0.0000000000000000e+00  -6.3415104851666641e+04 -2.3812392040578718e+04 0.0000000000000000e+00 -2.3812392040578718e+04 -3.4467057678495119e+04 0.0000000000000000e+00 0.0000000000000000e+00 0.0000000000000000e+00 0.0000000000000000e+00  -1.9258028747366858e+04 -4.3261671854401575e+03 0.0000000000000000e+00 -4.3261671854401575e+03 -5.8867424180869506e+01 0.0000000000000000e+00 0.0000000000000000e+00 0.0000000000000000e+00 0.0000000000000000e+00  -3.7102226715562436e+04 -1.7040922382164274e+04 0.0000000000000000e+00 -1.7040922382164274e+04 -1.3464956058489230e+04 0.0000000000000000e+00 0.0000000000000000e+00 0.0000000000000000e+00 0.0000000000000000e+00  -1.2747370877884450e+04 -9.6272419936099448e+02 0.0000000000000000e+00 -9.6272419936099448e+02 -5.2244562484808514e+04 0.0000000000000000e+00 0.0000000000000000e+00 0.0000000000000000e+00 0.0000000000000000e+00  -4.9826884548590278e+04 -1.3098347013184874e+04 0.0000000000000000e+00 -1.3098347013184874e+04 -5.9381364322778099e+04 0.0000000000000000e+00 0.0000000000000000e+00 0.0000000000000000e+00 0.0000000000000000e+00  -3.6372033252340741e+04 -1.4849733267537400e+04 0.0000000000000000e+00 -1.4849733267537400e+04 -5.4129763207042444e+04 0.0000000000000000e+00 0.0000000000000000e+00 0.0000000000000000e+00 0.0000000000000000e+00  -4.0454086331920240e+04 -2.2381489774953119e+04 0.0000000000000000e+00 -2.2381489774953119e+04 -6.4873521729169275e+04 0.0000000000000000e+00 0.0000000000000000e+00 0.0000000000000000e+00 0.0000000000000000e+00  -1.0367689844197659e+04 6.7466302149148862e+02 0.0000000000000000e+00 6.7466302149148862e+02 -2.4031426000005031e+04 0.0000000000000000e+00 0.0000000000000000e+00 0.0000000000000000e+00 0.0000000000000000e+00  -1.6768375711609486e+04 -6.4349921406538824e+03 0.0000000000000000e+00 -6.4349921406538824e+03 -2.8181080759645902e+04 0.0000000000000000e+00 0.0000000000000000e+00 0.0000000000000000e+00 0.0000000000000000e+00  -2.3796861256134885e+04 -1.5501494789880439e+03 0.0000000000000000e+00 -1.5501494789880439e+03 -3.9256628494696117e+04 0.0000000000000000e+00 0.0000000000000000e+00 0.0000000000000000e+00 0.0000000000000000e+00  -2.2206647570064870e+04 -8.0659793801805363e+03 0.0000000000000000e+00 -8.0659793801805363e+03 -4.6651429648045727e+04 0.0000000000000000e+00 0.0000000000000000e+00 0.0000000000000000e+00 0.0000000000000000e+00  -3.6495875647026287e+03 -1.9259762482503488e+03 0.0000000000000000e+00 -1.9259762482503488e+03 8.0290230977908877e+03 0.0000000000000000e+00 0.0000000000000000e+00 0.0000000000000000e+00 0.0000000000000000e+00  8.7344993739167842e+02 -3.0517113921530467e+03 0.0000000000000000e+00 -3.0517113921530467e+03 8.3402801690763226e+03 0.0000000000000000e+00 0.0000000000000000e+00 0.0000000000000000e+00 0.0000000000000000e+00  -4.5165421732871191e+03 4.7330314749738000e+02 0.0000000000000000e+00 4.7330314749738000e+02 -8.6038715926863388e+03 0.0000000000000000e+00 0.0000000000000000e+00 0.0000000000000000e+00 0.0000000000000000e+00  -9.5760489595689760e+03 -1.4760016118790427e+03 0.0000000000000000e+00 -1.4760016118790427e+03 -7.9149230059598149e+03 0.0000000000000000e+00 0.0000000000000000e+00 0.0000000000000000e+00 0.0000000000000000e+00  1.7472105197591802e+03 -1.6675953528183538e+03 0.0000000000000000e+00 -1.6675953528183538e+03 5.0319134970917830e+03 0.0000000000000000e+00 0.0000000000000000e+00 0.0000000000000000e+00 0.0000000000000000e+00  -6.6381342379437956e+02 -1.2077294002715914e+03 0.0000000000000000e+00 -1.2077294002715914e+03 2.4859853983696189e+03 0.0000000000000000e+00 0.0000000000000000e+00 0.0000000000000000e+00 0.0000000000000000e+00  6.4236718930937523e+03 -4.4931859038423117e+03 0.0000000000000000e+00 -4.4931859038423117e+03 8.6788854848233877e+03 0.0000000000000000e+00 0.0000000000000000e+00 0.0000000000000000e+00 0.0000000000000000e+00  -3.1138474978201361e+03 -2.8506366175121643e+03 0.0000000000000000e+00 -2.8506366175121643e+03 4.5967833324553694e+03 0.0000000000000000e+00 0.0000000000000000e+00 0.0000000000000000e+00 0.0000000000000000e+00  8.8439297868171398e+03 -6.9324757088921751e+03 0.0000000000000000e+00 -6.9324757088921751e+03 -1.5095689617543703e+04 0.0000000000000000e+00 0.0000000000000000e+00 0.0000000000000000e+00 0.0000000000000000e+00  -8.0731334213524869e+03 -1.4357804338560649e+04 0.0000000000000000e+00 -1.4357804338560649e+04 -6.9773354639665296e+04 0.0000000000000000e+00 0.0000000000000000e+00 0.0000000000000000e+00 0.0000000000000000e+00  -3.0898145034128383e+03 -1.4303626832627700e+04 0.0000000000000000e+00 -1.4303626832627700e+04 -3.1653755240713603e+04 0.0000000000000000e+00 0.0000000000000000e+00 0.0000000000000000e+00 0.0000000000000000e+00  -2.3294469387046462e+04 -2.3598896489612900e+04 0.0000000000000000e+00 -2.3598896489612900e+04 -1.0496043261883545e+05 0.0000000000000000e+00 0.0000000000000000e+00 0.0000000000000000e+00 0.0000000000000000e+00  -1.0661229178791687e+05 -3.7537819099738590e+04 0.0000000000000000e+00 -3.7537819099738590e+04 -1.0339218599889128e+05 0.0000000000000000e+00 0.0000000000000000e+00 0.0000000000000000e+00 0.0000000000000000e+00  -7.6309223663729426e+04 -1.7041894899663184e+04 0.0000000000000000e+00 -1.7041894899663184e+04 -2.2999191861003143e+04 0.0000000000000000e+00 0.0000000000000000e+00 0.0000000000000000e+00 0.0000000000000000e+00  -4.0414701027902566e+02 -1.9772279756888802e+03 0.0000000000000000e+00 -1.9772279756888802e+03 -1.0835004973172433e+03 0.0000000000000000e+00 0.0000000000000000e+00 0.0000000000000000e+00 0.0000000000000000e+00  -1.2701113429800467e+04 -1.3887595379468783e+04 0.0000000000000000e+00 -1.3887595379468783e+04 -9.9168930033962006e+03 0.0000000000000000e+00 0.0000000000000000e+00 0.0000000000000000e+00 0.0000000000000000e+00  -3.2014871533735391e+02 -6.8862804978970951e+02 0.0000000000000000e+00 -6.8862804978970951e+02 1.0094780317941118e+04 0.0000000000000000e+00 0.0000000000000000e+00 0.0000000000000000e+00 0.0000000000000000e+00  2.7412630181227378e+01 4.9156864390769826e+01 0.0000000000000000e+00 4.9156864390769826e+01 1.3488266102676482e+02 0.0000000000000000e+00 0.0000000000000000e+00 0.0000000000000000e+00 0.0000000000000000e+00  1.5368219417268665e+04 -4.2837941573113712e+03 0.0000000000000000e+00 -4.2837941573113712e+03 6.2473069245806173e+03 0.0000000000000000e+00 0.0000000000000000e+00 0.0000000000000000e+00 0.0000000000000000e+00  1.7218851720827817e+04 -6.3250601879725482e+03 0.0000000000000000e+00 -6.3250601879725482e+03 1.6764855238006676e+04 0.0000000000000000e+00 0.0000000000000000e+00 0.0000000000000000e+00 0.0000000000000000e+00  -3.8353482225048596e+04 -1.5772772223517900e+03 0.0000000000000000e+00 -1.5772772223517900e+03 1.3586758680190721e+02 0.0000000000000000e+00 0.0000000000000000e+00 0.0000000000000000e+00 0.0000000000000000e+00  -3.9314711193197676e+04 -1.0746709881346836e+04 0.0000000000000000e+00 -1.0746709881346836e+04 -4.1736996098056115e+03 0.0000000000000000e+00 0.0000000000000000e+00 0.0000000000000000e+00 0.0000000000000000e+00  -3.8570688207773353e+04 1.0773891644058118e+04 0.0000000000000000e+00 1.0773891644058118e+04 -3.1331877646875164e+03 0.0000000000000000e+00 0.0000000000000000e+00 0.0000000000000000e+00 0.0000000000000000e+00  -4.1313694117416628e+04 3.4434481861894449e+02 0.0000000000000000e+00 3.4434481861894449e+02 2.1569105758410095e+02 0.0000000000000000e+00 0.0000000000000000e+00 0.0000000000000000e+00 0.0000000000000000e+00  -1.1883183390343181e+05 1.3953725630390945e+04 0.0000000000000000e+00 1.3953725630390945e+04 -1.1316917770864549e+04 0.0000000000000000e+00 0.0000000000000000e+00 0.0000000000000000e+00 0.0000000000000000e+00  -8.5708733318493541e+04 3.0321893954666448e+04 0.0000000000000000e+00 3.0321893954666448e+04 -9.3790134768246222e+04 0.0000000000000000e+00 0.0000000000000000e+00 0.0000000000000000e+00 0.0000000000000000e+00  -2.1774284950419191e+04 1.5201424311349881e+04 0.0000000000000000e+00 1.5201424311349881e+04 -1.1818907962146885e+05 0.0000000000000000e+00 0.0000000000000000e+00 0.0000000000000000e+00 0.0000000000000000e+00  -1.3379342867492295e+02 -1.3647123557534981e+03 0.0000000000000000e+00 -1.3647123557534981e+03 -9.5396429562446327e+04 0.0000000000000000e+00 0.0000000000000000e+00 0.0000000000000000e+00 0.0000000000000000e+00  -4.0613433946302339e+03 -1.2304776503400885e+03 0.0000000000000000e+00 -1.2304776503400885e+03 -9.9747740168906850e+04 0.0000000000000000e+00 0.0000000000000000e+00 0.0000000000000000e+00 0.0000000000000000e+00  -2.4028112181139124e+04 -1.5045852900038144e+04 0.0000000000000000e+00 -1.5045852900038144e+04 -1.1625519097225912e+05 0.0000000000000000e+00 0.0000000000000000e+00 0.0000000000000000e+00 0.0000000000000000e+00  -8.1829305200016708e+04 -2.8919248723037457e+04 0.0000000000000000e+00 -2.8919248723037457e+04 -9.1620705667539325e+04 0.0000000000000000e+00 0.0000000000000000e+00 0.0000000000000000e+00 0.0000000000000000e+00  -1.1868096563050766e+05 -1.4005790477408073e+04 0.0000000000000000e+00 -1.4005790477408073e+04 -1.1442624248924867e+04 0.0000000000000000e+00 0.0000000000000000e+00 0.0000000000000000e+00 0.0000000000000000e+00  -2.6279100357339095e+04 2.3978358075489756e+04 0.0000000000000000e+00 2.3978358075489756e+04 -1.0634017672743349e+05 0.0000000000000000e+00 0.0000000000000000e+00 0.0000000000000000e+00 0.0000000000000000e+00  -3.1872668466063915e+03 1.4192223755478622e+04 0.0000000000000000e+00 1.4192223755478622e+04 -3.1646741487360687e+04 0.0000000000000000e+00 0.0000000000000000e+00 0.0000000000000000e+00 0.0000000000000000e+00  -8.1160115126235060e+03 1.4169419565875050e+04 0.0000000000000000e+00 1.4169419565875050e+04 -6.9564397103997602e+04 0.0000000000000000e+00 0.0000000000000000e+00 0.0000000000000000e+00 0.0000000000000000e+00  3.8402641834005808e+03 8.2080522583266356e+03 0.0000000000000000e+00 8.2080522583266356e+03 -1.4845677833947788e+04 0.0000000000000000e+00 0.0000000000000000e+00 0.0000000000000000e+00 0.0000000000000000e+00  2.6073852688533800e+04 8.1281970860323136e+03 0.0000000000000000e+00 8.1281970860323136e+03 1.8729534346806857e+04 0.0000000000000000e+00 0.0000000000000000e+00 0.0000000000000000e+00 0.0000000000000000e+00  1.6274819631329559e+04 4.6608829522159022e+03 0.0000000000000000e+00 4.6608829522159022e+03 6.3048686698691808e+03 0.0000000000000000e+00 0.0000000000000000e+00 0.0000000000000000e+00 0.0000000000000000e+00  3.4229731108860683e+01 -3.3841367023840988e+01 0.0000000000000000e+00 -3.384136702384