<?xml version="1.0"?>
<VTKFile type="UnstructuredGrid"  version="0.1"  >
<UnstructuredGrid>
<Piece  NumberOfPoints="392" NumberOfCells="684">
<Points>
<DataArray  type="Float64"  NumberOfComponents="3"  format="ascii">1.925 0.0625 0  1.925 0.03750000000000001 0  1.975 0.03750000000000001 0  1.975 0.0625 0  1.825 0.0625 0  1.825 0.03750000000000001 0  1.875 0.03750000000000001 0  1.875 0.0625 0  1.725 0.0625 0  1.725 0.03750000000000001 0  1.775 0.03750000000000001 0  1.775 0.0625 0  1.625 0.0625 0  1.625 0.03750000000000001 0  1.675 0.03750000000000001 0  1.675 0.0625 0  1.125 0.4625 0  1.125 0.4375 0  1.175 0.4375 0  1.175 0.4625 0  1.025 0.4625 0  1.025 0.4375 0  1.075 0.4375 0  1.075 0.4625 0  0.9249999999999999 0.4625 0  0.9249999999999999 0.4375 0  0.975 0.4375 0  0.975 0.4625 0  0.825 0.4625 0  0.825 0.4375 0  0.875 0.4375 0  0.875 0.4625 0  0.325 0.0625 0  0.325 0.03750000000000001 0  0.375 0.03750000000000001 0  0.375 0.0625 0  0.225 0.0625 0  0.225 0.03750000000000001 0  0.275 0.03750000000000001 0  0.275 0.0625 0  0.125 0.0625 0  0.125 0.03750000000000001 0  0.175 0.03750000000000001 0  0.175 0.0625 0  0.025 0.0625 0  0.025 0.03750000000000001 0  0.07500000000000001 0.03750000000000001 0  0.07500000000000001 0.0625 0  0.04999999999999999 -0.05 0  0.04999999999999999 -0.1 0  0.35 -0.1 0  0.35 -0.05 0  0.3646446609406727 -0.01464466094067262 0  0.4 0 0  0.4 0.1 0  0 0.1 0  0 0 0  0.03535533905932739 -0.01464466094067263 0  1.2 0.4 0  1.2 0.5 0  1.164644660940673 0.5146446609406726 0  1.15 0.5499999999999999 0  1.15 0.6 0  0.85 0.6 0  0.85 0.55 0  0.8353553390593274 0.5146446609406726 0  0.8 0.5 0  0.7999999999999999 0.4 0  1.65 -0.05 0  1.65 -0.1 0  1.95 -0.1 0  1.95 -0.05 0  1.964644660940673 -0.01464466094067262 0  2 0 0  2 0.1 0  1.6 0.1 0  1.6 0 0  1.635355339059327 -0.01464466094067263 0  0 0.5 0  2 0.5 0  1.2 0.45 0  1 0 0  0.4 0.05 0  0 0.05 0  1.8 -0.1 0  0.2 -0.1 0  1 0.6 0  1.8 0.1 0  0.8 0.45 0  0.4 0.5 0  1 0.4 0  2 0.05 0  1.6 0.05 0  0.2 0.1 0  1.9 0.1 0  1.7 0.1 0  0.8999999999999999 0.4 0  1.1 0.4 0  0.1 0.1 0  0.3 0.1 0  1.95 0.1 0  1.85 0.1 0  1.65 0.1 0  1.75 0.1 0  0.8499999999999999 0.4 0  0.95 0.4 0  1.15 0.4 0  1.05 0.4 0  0.05 0.1 0  0.15 0.1 0  0.35 0.1 0  0.25 0.1 0  1.6 0.5 0  1.3 0 0  0.7 0 0  1.4375 0.3 0  0.5625 0.3 0  0.2 0.5 0  1.8 0.5 0  2 0.3 0  1.175 0.1812499999999999 0  0.85 0.1718750000000001 0  0.325 0.30625 0  0 0.3 0  1.675 0.30625 0  0.6000000000000001 0.5 0  1.4 0.5 0  0.55 0 0  1.341622340425532 0.1624335106382981 0  0.6773726522481502 0.1711395489470689 0  1.012901283253751 0.162651347203274 0  0.1632109004739336 0.2661581753554502 0  1.836789099526067 0.2661581753554501 0  1.45 0 0  0.85 0 0  1.15 0 0  0.5329311837679237 0.158009038188562 0  0.1048445205763076 0.3951554794236924 0  1.895155479423692 0.3951554794236923 0  1.296148418660236 0.2963212443180608 0  1.470822962357565 0.1312655564636528 0  1.563133067958938 0.2301675207422046 0  0.7632564689914135 0.2724046712857893 0  1.5 0.5 0  1.554464285714286 0.3709821428571428 0  0.6669642857142857 0.3839285714285714 0  0.5 0.5 0  0.4455357142857143 0.3709821428571428 0  0.4243119651802664 0.2256020782473696 0  1.082498036353099 0.2717671838924914 0  0.9372456691183737 0.2696106313453704 0  0.2267876088535605 0.3800847476474584 0  1.77321239114644 0.3800847476474585 0  1.3 0.5 0  1.36443880878442 0.3898166516470788 0  0.7749999999999999 0.08593750000000001 0  0.925 0.08593750000000004 0  1.250122512805358 0.09933018124507483 0  0.275 0.2076704545454545 0  1.73756600464573 0.2122399107802653 0  1.188322811889439 0.292749054583077 0  0.6122357112402278 0.0866494119172642 0  1.102329427930278 0.09892438925099596 0  1.7 0.5 0  0.3 0.5 0  0.5459552020690525 0.4045953756465789 0  2 0.2 0  0 0.2 0  0.6623894180364593 0.2826461878847109 0  0.1 0.5 0  0 0.4 0  2 0.4 0  1.9 0.5 0  0.7000000000000001 0.5 0  0.3218789381964591 0.4043351855737367 0  1.651846443535515 0.4077254588986433 0  1.389349570269088 0.07690549543040782 0  1.460753985780937 0.393539984346597 0  0.5997360736198706 0.2181715474379875 0  0.125 0.1855919731052476 0  1.875 0.1855919731052475 0  1.650439576694959 0.2220797951794818 0  0.8508156068645467 0.3061622962159847 0  0.7636863261240752 0.1715072744735344 0  1.475131383499517 0.2197740741701695 0  0.4911912217663637 0.07357366529909103 0  1.930906424286099 0.25 0  0.07640224989301839 0.2579853162158819 0  1.259621577815083 0.1834455767022115 0  1.368178610886578 0.2461194380394792 0  0.2443588009795495 0.2851816999747424 0  1.758630395614505 0.2972444940617194 0  1.283553234500905 0.4164467654990952 0  1.092979533702891 0.180414477406161 0  1.006450641626876 0.08132567360163702 0  0.9314506416268757 0.167263173601637 0  0.6935959492753776 0.08128501245057949 0  1.075 0.6 0  1.875 -0.1 0  1.725 -0.1 0  0.275 -0.1 0  0.125 -0.1 0  0.925 0.6 0  1.525 0 0  0.4776569423119861 0.2920535891286455 0  0.4020861482848835 0.3072992534399704 0  1.025 0.3254298552747583 0  0.2027347199230812 0.1780516756640375 0  0.3537475299621801 0.1825670159535071 0  1.375 0 0  0.85 0.09617897727272727 0  1.225 0 0  0.925 0 0  0.7749999999999999 0 0  0.475 0 0  0.625 0 0  1.075 0 0  1.928301565342725 0.3263388024218867 0  0.7294912511984659 0.4250000000000002 0  0.7363172176531352 0.3464770727519887 0  1.176296005364802 0.07361991101586525 0  0.25 -0.03125 0  0.15 -0.03125 0  1.05 0.53125 0  1.85 -0.03125 0  1.75 -0.03124999999999999 0  0.95 0.53125 0  1.413833501026992 0.1783988133279079 0  1.010311808337519 0.2410561529140032 0  0.4612760904572917 0.1408965722872714 0  0.4972279162726879 0.2217051796165551 0  1.125772017208398 0.3308706697164291 0  1.367901752364094 0.3180095046854547 0  1.518670939081018 0.2981045015502355 0  1.59690777167693 0.30078962236185 0  1.526128395599057 0.07727870330070698 0  1.828872040436541 0.4306006981581906 0  0.15 0.4497761506325246 0  1.839758054208022 0.3425177730532244 0  0.1141942995330689 0.3216829623232483 0  1.945369442271463 0.4453694422714633 0  0.05 0.5 0  1.240686027304319 0.3413090544113066 0  1.316928753233505 0.07068836381982413 0  0.2619027753960266 0.4409526983943627 0  1.720845561542362 0.4304199639905683 0  1.55 0.4451024159663866 0  0.4809317384335179 0.4320447270774966 0  1.807015290356054 0.2026926420903883 0  0.05026445138346253 0.3508787038538807 0  0.393856566906688 0.4252870866393352 0  0.913220178645909 0.3332620492501031 0  1.525273295158551 0.1729741426009245 0  1.601658996405642 0.1707744844670951 0  0.8733054036978282 0.2388795773210715 0  0.6125435906042009 0.4298843517222039 0  0.6200850989387395 0.3353015637829367 0  1.460711153920992 0.06558524044355403 0  0.8066282344957068 0.2221398356428947 0  0.7203145606197819 0.2217721101164291 0  1.703740671329455 0.3661869225849074 0  0.5990587027436781 0.1517521314804627 0  1.675 0.1609506706744878 0  0.5153836090368266 0.3461533817824105 0  1.243679482455746 0.2509523986931738 0  0.1923088017181099 0.3246228684067324 0  1.143479272814173 0.2415618384172959 0  0.3613256977497352 0.249510776893205 0  1.35 0.5 0  0.36286559874544 0.3565471286944428 0  0.05955885377676867 0.1672794268883843 0  1.938138695104181 0.1872548469777267 0  1.312129673616584 0.2178490428945431 0  0.2732136354092187 0.3396023070187588 0  0.1661642491970064 0.3904374081211693 0  1.410896435200069 0.4356529402203816 0  0.5498786686905027 0.09709658512388622 0  0.7931800870948912 0.3252224786258671 0  1.299731160983831 0.3574199598841847 0  1.632705368110799 0.3499788667466203 0  0.35 0.5 0  1.413967210687929 0.3562181143537333 0  0.075 0.4463106472259004 0  1.775 0.1532937771065077 0  0.6717759379371472 0.4456036019631708 0  0.4103666348092597 0.1690985306522001 0  0.2228761112987135 0.2318772604727423 0  0.8070036251099498 0.1340269886363636 0  0.720694593897288 0.1325695228173195 0  0.8816324869791667 0.04808948863636364 0  0.8124999999999999 0.04296875 0  0.9625 0.04296875000000002 0  0.7374999999999999 0.04296875000000001 0  0.9699215651412139 0.1251417750323321 0  1.491992169547333 0.4424881086376402 0  1.712698203298838 0.2635144279265098 0  0.6570382073221132 0.2251671676055735 0  0.2058570911263748 0.44416851527159 0  0.9682933569671909 0.3176896785403109 0  1.25 0.5 0  1.479026197932725 0.3393370671651255 0  1.198847580415758 0.127714308405318 0  1.2625 0.04335760283262356 0  1.29147781925916 0.1372540266083001 0  1.356072654547209 0.4447580517396325 0  0.2940110804164894 0.2599978349000986 0  0.3023094202100461 0.157273826160548 0  1.42164755951862 0.232916561801728 0  1.060942787665469 0.1354572591164508 0  1.1343661739677 0.1438816075407062 0  1.126829345559166 0.04978247325994596 0  0.55 0.5 0  1.878247609755212 0.3027837348463762 0  1.45 0.5 0  1.60711932076804 0.4432973516127806 0  1.65 0.5 0  0.8887128874759703 0.1340269886363636 0  1.774828163938701 0.4488223788724915 0  0.9741951226330795 0.2006181632730862 0  1.186518668510543 0.3472066475339435 0  2 0.15 0  0.655342391488794 0.1207701386972099 0  0.5875 0.03874074761510298 0  1.0375 0.03794421594571627 0  0.6505462210657735 0.04802806016679532 0  1.777778634182298 0.2473873017454838 0  0.45 0.5 0  0.5690954247705213 0.3538594787582222 0  1.830596789080292 0.1521143869125729 0  1.880979602406887 0.4483446850634988 0  1.947802068033803 0.3927228536613528 0  2 0.35 0  1.562441350057411 0.136287083472548 0  1.416812175611726 0.1239803747715759 0  0.75 0.5 0  0.5493328796498124 0.2446219238602108 0  1.075 0.3513111004457051 0  1.060628046991921 0.2229802372164043 0  0.9221538744171671 0.2191273562955505 0  1.8 -0.01051136363636362 0  1.6953125 -0.01562499999999998 0  1.897713414634147 -0.05282012195121953 0  1.097713414634147 0.5528201219512194 0  1 0.5105113636363637 0  0.2977134146341464 -0.0528201219512195 0  0.2 -0.01051136363636362 0  0.1022865853658537 -0.05282012195121952 0  0.8953125 0.515625 0  0.2494651744946157 0.1530130413581762 0  0.7122738490955939 0.2721174869100541 0  0.6711366323973266 0.3329955950433481 0  0.6113378845778723 0.2849521566242995 0  1.19392139556
[...]
<PointData  Vectors="f_246"> 
<DataArray  type="Float64"  Name="f_246"  NumberOfComponents="3" format="ascii">7.8374692494894782e-08 1.2904543830885441e-08 0.0000000000000000e+00  9.1980828961098076e-08 6.6494842798350607e-09 0.0000000000000000e+00  8.2533037513637064e-08 4.4927190856153894e-08 0.0000000000000000e+00  6.9524731664456768e-08 5.7629994713110128e-08 0.0000000000000000e+00  1.0423365208579709e-07 -8.9656242065387023e-08 0.0000000000000000e+00  1.1990498325474556e-07 -7.8399754634496534e-08 0.0000000000000000e+00  1.0377653418443270e-07 -3.4844991185204871e-08 0.0000000000000000e+00  8.9907015089076460e-08 -3.6266055455317786e-08 0.0000000000000000e+00  1.4853051189830633e-07 -2.3669284788551666e-07 0.0000000000000000e+00  1.7431102687503633e-07 -2.0615808075995527e-07 0.0000000000000000e+00  1.4315187292808206e-07 -1.3707141012216542e-07 0.0000000000000000e+00  1.2393935514149503e-07 -1.5546627442435822e-07 0.0000000000000000e+00  2.0673913759139764e-07 -5.4272036606460509e-07 0.0000000000000000e+00  2.5734473165431602e-07 -4.9918511966442444e-07 0.0000000000000000e+00  2.1174484511192523e-07 -3.1622826898362573e-07 0.0000000000000000e+00  1.7572277488898722e-07 -3.5716341579633268e-07 0.0000000000000000e+00  -2.0185742064636784e-07 -2.9627077186496098e-06 0.0000000000000000e+00  -1.8477237961187268e-07 -2.9328497764110179e-06 0.0000000000000000e+00  -2.6881007579196897e-07 -2.7966125506026153e-06 0.0000000000000000e+00  -2.9929091215146993e-07 -2.8254988715484561e-06 0.0000000000000000e+00  -3.6286772483026136e-08 -3.0814875317945121e-06 0.0000000000000000e+00  -3.3690832083111859e-08 -3.0530774047007523e-06 0.0000000000000000e+00  -1.0720164455606947e-07 -3.0135436812515383e-06 0.0000000000000000e+00  -1.1555231261025759e-07 -3.0424398793514732e-06 0.0000000000000000e+00  1.1849112361834385e-07 -3.0395778712184345e-06 0.0000000000000000e+00  1.1118007356862445e-07 -3.0110581230981314e-06 0.0000000000000000e+00  3.8272589199149436e-08 -3.0523722085457880e-06 0.0000000000000000e+00  4.1347220953836698e-08 -3.0809573313504562e-06 0.0000000000000000e+00  3.0138576633492024e-07 -2.8272011976590435e-06 0.0000000000000000e+00  2.7076508316591818e-07 -2.7961399038709419e-06 0.0000000000000000e+00  1.8732811142659914e-07 -2.9315983926898763e-06 0.0000000000000000e+00  2.0443765538275022e-07 -2.9610396255873777e-06 0.0000000000000000e+00  -1.7271133412914027e-07 -3.5916406773158297e-07 0.0000000000000000e+00  -2.0984508652402072e-07 -3.1974111047058412e-07 0.0000000000000000e+00  -2.5307300206438759e-07 -4.9513130397329748e-07 0.0000000000000000e+00  -2.0318175348225681e-07 -5.4172564589155893e-07 0.0000000000000000e+00  -1.2287414526615571e-07 -1.5558405745198183e-07 0.0000000000000000e+00  -1.4195567325932600e-07 -1.3733579488992527e-07 0.0000000000000000e+00  -1.7339039842859143e-07 -2.0685306758106697e-07 0.0000000000000000e+00  -1.4607361999708741e-07 -2.3762497778376584e-07 0.0000000000000000e+00  -8.9446344542683391e-08 -3.5349185591133280e-08 0.0000000000000000e+00  -1.0321162077808758e-07 -3.4353255490291980e-08 0.0000000000000000e+00  -1.1956419628726667e-07 -7.7581898470247361e-08 0.0000000000000000e+00  -1.0392825013954703e-07 -8.8308380850593359e-08 0.0000000000000000e+00  -6.8500025732193725e-08 5.9782561550241611e-08 0.0000000000000000e+00  -8.0640394184545728e-08 4.7136620636013791e-08 0.0000000000000000e+00  -9.0092709502812973e-08 7.2283431399327285e-09 0.0000000000000000e+00  -7.7295357361474529e-08 1.3729042383069087e-08 0.0000000000000000e+00  -6.7462515696035085e-08 -1.0007366278158518e-08 0.0000000000000000e+00  0.0000000000000000e+00 0.0000000000000000e+00 0.0000000000000000e+00  0.0000000000000000e+00 0.0000000000000000e+00 0.0000000000000000e+00  -1.5809317928802458e-07 -1.5378485314972508e-07 0.0000000000000000e+00  -2.9373103454023292e-07 -3.2562312609186796e-07 0.0000000000000000e+00  -4.1426753741736974e-07 -6.3480338453244273e-07 0.0000000000000000e+00  -1.3109263322466536e-07 -7.0949897528183542e-07 0.0000000000000000e+00  -3.0409428245743331e-08 1.1225051364218298e-07 0.0000000000000000e+00  -9.2185850529702497e-08 5.1386172828242226e-08 0.0000000000000000e+00  -9.4191168118787451e-08 1.4528114546136857e-08 0.0000000000000000e+00  -2.4929771442927567e-07 -2.6744985886121765e-06 0.0000000000000000e+00  -4.4290714203293576e-07 -2.7120428846948086e-06 0.0000000000000000e+00  -2.9178306469976264e-07 -2.9406216042578181e-06 0.0000000000000000e+00  -1.6698526454723552e-07 -3.0862979142259700e-06 0.0000000000000000e+00  -1.4225739129539421e-07 -3.2178838168844065e-06 0.0000000000000000e+00  1.4553907174967629e-07 -3.2175940839309309e-06 0.0000000000000000e+00  1.8057346592237269e-07 -3.0826466645690823e-06 0.0000000000000000e+00  2.9570924682658013e-07 -2.9434011230847266e-06 0.0000000000000000e+00  4.4679333528068975e-07 -2.7123934109240830e-06 0.0000000000000000e+00  2.5027127896628900e-07 -2.6732923367813985e-06 0.0000000000000000e+00  1.5882343864887181e-07 -1.4783846515504721e-07 0.0000000000000000e+00  0.0000000000000000e+00 0.0000000000000000e+00 0.0000000000000000e+00  0.0000000000000000e+00 0.0000000000000000e+00 0.0000000000000000e+00  6.8623782302700839e-08 -9.5128398343811061e-09 0.0000000000000000e+00  9.3181772401223321e-08 1.2062712918173307e-08 0.0000000000000000e+00  9.2272444990903363e-08 4.7967763395343228e-08 0.0000000000000000e+00  3.2411541436398258e-08 1.1030852262523133e-07 0.0000000000000000e+00  1.3301909567264872e-07 -7.0879701785139567e-07 0.0000000000000000e+00  4.2132941151450037e-07 -6.3981732724481768e-07 0.0000000000000000e+00  3.0561733436728632e-07 -3.3082668247047353e-07 0.0000000000000000e+00  8.7792914438042859e-07 2.6474644745092891e-07 0.0000000000000000e+00  -8.7545147088900307e-07 2.6373982084472112e-07 0.0000000000000000e+00  -3.3607516787387380e-07 -2.7062489344079995e-06 0.0000000000000000e+00  2.0481742766736797e-09 -2.8114204125611054e-06 0.0000000000000000e+00  -2.5269858745191277e-07 -6.5422745131472353e-07 0.0000000000000000e+00  -7.3275843713100177e-08 7.1890104865978861e-08 0.0000000000000000e+00  0.0000000000000000e+00 0.0000000000000000e+00 0.0000000000000000e+00  0.0000000000000000e+00 0.0000000000000000e+00 0.0000000000000000e+00  2.4449821655512497e-09 -3.3153576055356038e-06 0.0000000000000000e+00  7.1987174270482016e-08 -1.4123216789956458e-07 0.0000000000000000e+00  3.3696185979718431e-07 -2.7061485932588285e-06 0.0000000000000000e+00  9.7474061346674608e-07 -8.9109402892385457e-07 0.0000000000000000e+00  2.3530046729045074e-09 -3.0193104001555733e-06 0.0000000000000000e+00  7.4751795548468952e-08 6.9563041580569712e-08 0.0000000000000000e+00  2.5800403995394661e-07 -6.5857273223677590e-07 0.0000000000000000e+00  -7.0144065170346935e-08 -1.4209240462250422e-07 0.0000000000000000e+00  5.0733617550904912e-08 -6.5137909743476907e-09 0.0000000000000000e+00  1.0180968900936022e-07 -3.4001660166521484e-07 0.0000000000000000e+00  1.2662481825898698e-07 -2.9345721056567162e-06 0.0000000000000000e+00  -1.2215114726412922e-07 -2.9390286988262398e-06 0.0000000000000000e+00  -4.9599229290704913e-08 -6.1223168353147402e-09 0.0000000000000000e+00  -9.9237243043872533e-08 -3.4148581606966400e-07 0.0000000000000000e+00  4.1547438855425180e-08 5.0985613373404876e-08 0.0000000000000000e+00  5.8034674699399907e-08 -7.2306850622178296e-08 0.0000000000000000e+00  1.1579888102281836e-07 -4.9944877691810785e-07 0.0000000000000000e+00  8.7086574250648452e-08 -2.2746002519567942e-07 0.0000000000000000e+00  1.8684929083143055e-07 -2.8333247070912259e-06 0.0000000000000000e+00  6.2895716692639340e-08 -2.9980868463590963e-06 0.0000000000000000e+00  -1.8401531310817208e-07 -2.8324432484024621e-06 0.0000000000000000e+00  -5.8320706561938018e-08 -2.9992638907943228e-06 0.0000000000000000e+00  -3.9479664735118070e-08 5.2910925627234292e-08 0.0000000000000000e+00  -5.9968985181734437e-08 -6.9161225015961491e-08 0.0000000000000000e+00  -1.1397983379912350e-07 -4.9853194337171936e-07 0.0000000000000000e+00  -8.3229208577150010e-08 -2.2896910464855370e-07 0.0000000000000000e+00  -9.7292256709763013e-07 -8.9122253643142305e-07 0.0000000000000000e+00  5.5781042017448506e-07 -2.1730055096008142e-06 0.0000000000000000e+00  -5.5067788914349280e-07 -2.1742694979065814e-06 0.0000000000000000e+00  -2.7742202636359847e-07 -1.5896965126281288e-06 0.0000000000000000e+00  2.7950135773913575e-07 -1.5885617983633181e-06 0.0000000000000000e+00  9.0529548537874313e-07 -2.4403686892429890e-07 0.0000000000000000e+00  -9.0236931738456366e-07 -2.4481427028812806e-07 0.0000000000000000e+00  -3.5153354251477909e-07 2.3407339158118694e-07 0.0000000000000000e+00  4.7206589205550179e-08 -2.6334365264217091e-06 0.0000000000000000e+00  -5.0151938549688693e-08 -2.6938739519545742e-06 0.0000000000000000e+00  3.6971102400601759e-07 -5.8615676513626957e-07 0.0000000000000000e+00  3.5292148847914596e-07 2.3458806142942394e-07 0.0000000000000000e+00  -3.6703865842722705e-07 -5.8774481864987857e-07 0.0000000000000000e+00  8.9620143217736414e-07 -1.7558787968147148e-06 0.0000000000000000e+00  -8.9416166650030596e-07 -1.7540271902221833e-06 0.0000000000000000e+00  -6.2653184695966161e-07 -1.4919985386914631e-06 0.0000000000000000e+00  8.4165244205046041e-08 -2.0184461078288218e-06 0.0000000000000000e+00  -6.3477626268884231e-08 -2.1056620110992375e-06 0.0000000000000000e+00  7.3613623138003474e-09 -2.8648147793085800e-06 0.0000000000000000e+00  2.6370437099879386e-07 -1.2696432054332539e-07 0.0000000000000000e+00  -2.6000311536898796e-07 -1.2756358425381834e-07 0.0000000000000000e+00  6.2708557038098267e-07 -1.4948637582733387e-06 0.0000000000000000e+00  -3.2474200021363636e-07 -2.6415301153975982e-06 0.0000000000000000e+00  3.2912393771719144e-07 -2.6396155298240068e-06 0.0000000000000000e+00  -4.7604570703028324e-08 -1.4166305592072204e-06 0.0000000000000000e+00  6.0350038849316710e-07 1.5431004038209140e-10 0.0000000000000000e+00  -6.0081263310852727e-07 -2.3996516884917602e-10 0.0000000000000000e+00  -1.6871226509317023e-07 -2.2405932621116611e-06 0.0000000000000000e+00  1.2091141857286071e-07 -1.3918538593545398e-06 0.0000000000000000e+00  -1.6070929184627224e-07 -9.8408207309892848e-07 0.0000000000000000e+00  9.3089848512452021e-08 -2.4657083596688362e-06 0.0000000000000000e+00  -9.6549198959143203e-07 -1.3042440190608899e-06 0.0000000000000000e+00  -5.2704598315886329e-07 -1.0678958154776501e-06 0.0000000000000000e+00  4.0044544564635370e-07 -2.0855804858438632e-06 0.0000000000000000e+00  9.6623179576884269e-07 -1.3010572362560356e-06 0.0000000000000000e+00  5.3093163163510524e-07 -1.0660463325742354e-06 0.0000000000000000e+00  1.5398969698280995e-07 -9.2576366884914324e-07 0.0000000000000000e+00  -2.8653158846162008e-08 -2.8623364369621389e-06 0.0000000000000000e+00  2.1141574214843913e-08 -2.8903264115515246e-06 0.0000000000000000e+00  5.6998490409873760e-07 -3.0772578750954303e-07 0.0000000000000000e+00  -5.6792240611979879e-07 -3.0751966993776490e-07 0.0000000000000000e+00  -7.3356793128640861e-07 -2.2267317243001953e-06 0.0000000000000000e+00  -4.5205953990078588e-07 -1.9379799126910128e-06 0.0000000000000000e+00  -2.3070869643173390e-07 -2.4558229261733934e-06 0.0000000000000000e+00  -8.5733353870253853e-08 -2.7956781811403289e-06 0.0000000000000000e+00  2.1680158933038430e-07 -2.3761257017593214e-06 0.0000000000000000e+00  1.2495340196575541e-07 -3.7543481495146360e-07 0.0000000000000000e+00  -1.3246785753564437e-07 -3.4286701825507379e-07 0.0000000000000000e+00  -9.2545629010321908e-08 -2.6444824035851355e-06 0.0000000000000000e+00  -2.8464547294980264e-07 -1.7990493480265485e-06 0.0000000000000000e+00  1.0641386029318813e-07 -2.7556037052153201e-06 0.0000000000000000e+00  -9.4044098605761470e-07 -5.3805669188828049e-07 0.0000000000000000e+00  9.4412633000139962e-07 -5.3805790918065601e-07 0.0000000000000000e+00  5.8493933600785715e-07 -1.5145012197140172e-06 0.0000000000000000e+00  -1.2375840438426441e-07 1.8361057074408090e-07 0.0000000000000000e+00  1.2564129602196073e-07 1.8219874189777185e-07 0.0000000000000000e+00  1.7585713111957576e-07 -2.0516063684424864e-06 0.0000000000000000e+00  8.8209616871439401e-07 1.1520096380600015e-08 0.0000000000000000e+00  6.1537964383001068e-07 2.6056087106156435e-07 0.0000000000000000e+00  -6.1340322950189581e-07 2.5933926704675853e-07 0.0000000000000000e+00  -8.7980579870515047e-07 1.1036358511124265e-08 0.0000000000000000e+00  7.3915952551189534e-07 -2.2236556264417622e-06 0.0000000000000000e+00  6.4726668080387521e-07 -6.0193505363249814e-07 0.0000000000000000e+00  -6.5515102771753337e-07 -6.9362272482528418e-07 0.0000000000000000e+00  3.1733780747405003e-07 -1.7925631655056832e-06 0.0000000000000000e+00  -5.5224392238215497e-07 -1.4867454757626430e-06 0.0000000000000000e+00  6.9707414169694630e-08 -1.7546350783732570e-06 0.0000000000000000e+00  8.3562674896651556e-08 -4.3568330283360489e-08 0.0000000000000000e+00  -8.0721536528625901e-08 -4.3353713706769331e-08 0.0000000000000000e+00  -1.5403099997333420e-07 -6.2230516331977860e-07 0.0000000000000000e+00  8.8263254292221651e-08 -2.7567222459718775e-06 0.0000000000000000e+00  -6.6297706537208367e-08 -2.4370057940675151e-06 0.0000000000000000e+00  -1.0446459098701608e-07 -1.3933746487844233e-06 0.0000000000000000e+00  -2.7199599090279287e-07 -1.1811275510418958e-06 0.0000000000000000e+00  -2.2477978503254541e-07 6.6361161262872846e-08 0.0000000000000000e+00  2.4640691883511947e-07 5.3276872910635189e-08 0.0000000000000000e+00  4.8135537938077524e-08 -2.3609208822087206e-06 0.0000000000000000e+00  -1.1289502503293642e-07 -1.9101827968107641e-06 0.0000000000000000e+00  3.1498176940995727e-07 -3.3249776885670172e-07 0.0000000000000000e+00  -3.4234430463511867e-07 -3.2808969234706155e-07 0.0000000000000000e+00  -4.1086851115364407e-07 -2.3179004384058829e-06 0.0000000000000000e+00  3.0175084325886395e-08 -2.8015110430312781e-06 0.0000000000000000e+00  9.4855774716703137e-09 -2.8386142400823869e-06 0.0000000000000000e+00  -2.8255809054010524e-08 -2.8287087445318267e-06 0.0000000000000000e+00  -2.8621122936538680e-07 -2.1589433359430428e-06 0.0000000000000000e+00  -1.0981473625188639e-07 -3.2775494984550805e-06 0.0000000000000000e+00  0.0000000000000000e+00 0.0000000000000000e+00 0.0000000000000000e+00  0.0000000000000000e+00 0.0000000000000000e+00 0.0000000000000000e+00  0.0000000000000000e+00 0.0000000000000000e+00 0.0000000000000000e+00  0.0000000000000000e+00 0.0000000000000000e+00 0.0000000000000000e+00  1.1206031089526209e-07 -3.2770808090198253e-06 0.0000000000000000e+00  5.7120733507452827e-07 -1.0885998361387907e-06 0.0000000000000000e+00  3.0201594079544561e-07 -1.1919410182329977e-06 0.0000000000000000e+00  3.6358088020842680e-07 -8.7070689489895321e-07 0.0000000000000000e+00  -1.8700176225039106e-08 -2.9494926560292361e-06 0.0000000000000000e+00  6.2532891720333385e-08 -1.8314943281844543e-07 0.0000000000000000e+00  6.3315254868049386e-08 -6.0721717962941593e-07 0.0000000000000000e+00  6.1071185131686988e-07 -1.8560534153723904e-06 0.0000000000000000e+00  -1.4939381350855390e-07 -2.6699751062166524e-06 0.0000000000000000e+00  4.5358797508723030e-07 -2.4400025665529864e-06 0.0000000000000000e+00  -1.6836074688326411e-07 -2.7654962543868389e-06 0.0000000000000000e+00  -4.5738268901427589e-07 -2.4359071867594530e-06 0.0000000000000000e+00  -5.6668632345132325e-07 -1.0841088554189173e-06 0.0000000000000000e+00  -6.1355402772165644e-07 -1.8555005652318557e-06 0.0000000000000000e+00  1.7477004488192689e-07 -2.7642088586993492e-06 0.0000000000000000e+00  -4.1612042879934601e-07 7.3460776709668324e-08 0.0000000000000000e+00  4.1490671111330477e-07 -2.3765779224507482e-06 0.0000000000000000e+00  2.3685948861858307e-07 -2.3895905357852212e-06 0.0000000000000000e+00  2.1250355713294327e-07 -2.6007615360426193e-06 0.0000000000000000e+00  -1.3866545498676703e-07 -9.7095953257958854e-08 0.0000000000000000e+00  -9.4850373066199763e-08 -3.5748361225767807e-08 0.0000000000000000e+00  -7.2205665804535300e-08 -3.1638494990296603e-06 0.0000000000000000e+00  9.5468259634679886e-08 -3.6144544212187971e-08 0.0000000000000000e+00  1.3913743610825219e-07 -9.7364715915450959e-08 0.0000000000000000e+00  8.2413229817241245e-08 -3.1646552690050701e-06 0.0000000000000000e+00  2.2962657267595673e-08 -1.6846824269180985e-06 0.0000000000000000e+00  1.2286162567927341e-10 -2.9012585520880640e-06 0.0000000000000000e+00  -5.7681819199764202e-08 -1.0464035719660559e-06 0.0000000000000000e+00  1.2195930466002327e-07 -1.2603221959538552e-06 0.0000000000000000e+00  -9.2958171489609134e-08 -2.8301660757303155e-06 0.0000000000000000e+00  -2.7082849039224568e-07 -1.9189610700217626e-06 0.0000000000000000e+00  -3.1289260216102081e-07 -1.2114397273994088e-06 0.0000000000000000e+00  -3.4330458974141046e-07 -8.7543320326360086e-07 0.0000000000000000e+00  2.4769722442301547e-07 -1.0890998536599393e-06 0.0000000000000000e+00  -7.0454546110249029e-07 -1.6515843901019672e-07 0.0000000000000000e+00  7.5641274400457423e-07 -1.1151346102286856e-07 0.0000000000000000e+00  -4.6071850122063633e-07 -1.3217706899933565e-07 0.0000000000000000e+00  4.0505495943190346e-07 -2.2826389297267341e-08 0.0000000000000000e+00  -7.3411288790716227e-07 1.2397167267434116e-07 0.0000000000000000e+00  8.7872297080416413e-07 1.3731971116573571e-07 0.0000000000000000e+00  -2.0031538463394944e-07 -2.4835616259093672e-06 0.0000000000000000e+00  3.2249404879469790e-07 -2.1160777655999921e-06 0.0000000000000000e+00  7.5086308394386533e-07 -4.1323878339462057e-07 0.0000000000000000e+00  -7.1975507830231556e-07 -4.6647688065030339e-07 0.0000000000000000e+00  -7.6679936298148908e-07 -1.0909358136192262e-06 0.0000000000000000e+00  7.1218847580291169e-07 -1.2210843494056645e-06 0.0000000000000000e+00  -1.1375965065917164e-07 -1.7500499917199782e-07 0.0000000000000000e+00  4.8280477501421355e-07 1.2781029873123777e-07 0.0000000000000000e+00  7.0974805624972046e-07 -8.6231907952615490e-07 0.0000000000000000e+00  6.8852934975758079e-08 -2.8995546642953549e-06 0.0000000000000000e+00  -1.1045430080325314e-08 -1.1328408818563661e-06 0.0000000000000000e+00  -2.9457827609629533e-08 -7.7451108401046756e-07 0.0000000000000000e+00  1.8995703963476920e-08 -2.7655672866012578e-06 0.0000000000000000e+00  6.0679270737233606e-07 -1.8231692216529191e-06 0.0000000000000000e+00  3.2446773350605012e-07 -1.8640896278425276e-06 0.0000000000000000e+00  3.3600506092239239e-07 -1.4373100970351835e-06 0.0000000000000000e+00  1.0237723702467619e-08 -2.5924914123189595e-06 0.0000000000000000e+00  2.8077570196890648e-08 -2.2896405650211285e-06 0.0000000000000000e+00  -5.3205096509059818e-07 -5.1163438509800045e-07 0.0000000000000000e+00  -8.9566734628516524e-08 -1.7414154456358346e-06 0.0000000000000000e+00  -1.6799237191022682e-08 -4.8505408445074171e-07 0.0000000000000000e+00  4.2754289953512938e-07 -1.3735079780066860e-06 0.0000000000000000e+00  -6.1227166230852573e-08 -2.4357624094114496e-06 0.0000000000000000e+00  4.1611019384865078e-07 -2.0788122839021938e-07 0.0000000000000000e+00  -2.0501845483141251e-08 -2.7347337259345167e-06 0.0000000000000000e+00  2.2253325256744414e-07 -6.8604421166857607e-07 0.0000000000000000e+00  -8.2801363880107842e-07 -1.9850180995128456e-06 0.0000000000000000e+00  5.0462846587193882e-07 -7.3485317673957880e-07 0.0000000000000000e+00  5.8271576541219865e-08 6.4366611362653439e-08 0.0000000000000000e+00  -9.3100655124898516e-08 6.4747886800796676e-08 0.0000000000000000e+00  -2.9010553666059776e-08 -2.1559398136578650e-06 0.0000000000000000e+00  4.5825664207815379e-07 -4.2926185843648273e-07 0.0000000000000000e+00  5.9391950819180434e-07 -1.4978894106984222e-07 0.0000000000000000e+00  -6.4727074599797210e-07 -1.7136005271376931e-06 0.0000000000000000e+00  -2.3214598347783912e-07 -1.4903088022894052e-06 0.0000000000000000e+00  1.5267557775083381e-07 -2.5997074292707939e-06 0.0000000000000000e+00  -2.9833893595833118e-07 -2.2352486469862859e-06 0.0000000000000000e+0