<?xml version="1.0"?>
<VTKFile type="UnstructuredGrid"  version="0.1"  >
<UnstructuredGrid>
<Piece  NumberOfPoints="1035" NumberOfCells="1917">
<Points>
<DataArray  type="Float64"  NumberOfComponents="3"  format="ascii">1.925 0.05625 0  1.925 0.04375 0  1.975 0.04375 0  1.975 0.05625 0  1.825 0.05625 0  1.825 0.04375 0  1.875 0.04375 0  1.875 0.05625 0  1.725 0.05625 0  1.725 0.04375 0  1.775 0.04375 0  1.775 0.05625 0  1.625 0.05625 0  1.625 0.04375 0  1.675 0.04375 0  1.675 0.05625 0  1.525 0.05625 0  1.525 0.04375 0  1.575 0.04375 0  1.575 0.05625 0  1.225 0.45625 0  1.225 0.44375 0  1.275 0.44375 0  1.275 0.45625 0  1.125 0.45625 0  1.125 0.44375 0  1.175 0.44375 0  1.175 0.45625 0  1.025 0.45625 0  1.025 0.44375 0  1.075 0.44375 0  1.075 0.45625 0  0.9249999999999999 0.45625 0  0.9249999999999999 0.44375 0  0.975 0.44375 0  0.975 0.45625 0  0.825 0.45625 0  0.825 0.44375 0  0.875 0.44375 0  0.875 0.45625 0  0.725 0.45625 0  0.725 0.44375 0  0.775 0.44375 0  0.775 0.45625 0  0.425 0.05625 0  0.425 0.04375 0  0.475 0.04375 0  0.475 0.05625 0  0.325 0.05625 0  0.325 0.04375 0  0.375 0.04375 0  0.375 0.05625 0  0.225 0.05625 0  0.225 0.04375 0  0.275 0.04375 0  0.275 0.05625 0  0.125 0.05625 0  0.125 0.04375 0  0.175 0.04375 0  0.175 0.05625 0  0.025 0.05625 0  0.025 0.04375 0  0.07500000000000001 0.04375 0  0.07500000000000001 0.05625 0  0.15 -0.05 0  0.15 -0.1 0  0.35 -0.1 0  0.35 -0.05 0  0.3646446609406726 -0.01464466094067262 0  0.4 0 0  0.5 0 0  0.5 0.1 0  0 0.1 0  0 0 0  0.1 0 0  0.1353553390593274 -0.01464466094067263 0  0.7 0.5 0  0.7 0.4 0  1.3 0.4 0  1.3 0.5 0  1.15 0.5 0  1.114644660940673 0.5146446609406726 0  1.1 0.55 0  1.1 0.6 0  0.9 0.6 0  0.9 0.55 0  0.8853553390593274 0.5146446609406726 0  0.85 0.5 0  1.65 -0.05 0  1.65 -0.1 0  1.85 -0.1 0  1.85 -0.05 0  1.864644660940673 -0.01464466094067262 0  1.9 0 0  2 0 0  2 0.1 0  1.5 0.1 0  1.5 0 0  1.6 0 0  1.635355339059327 -0.01464466094067263 0  0 0.5 0  2 0.5 0  1.75 0.1 0  0.5 0.05 0  0 0.05 0  1 0.4 0  0.7 0.45 0  1.3 0.45 0  1.225 0.5 0  0.7749999999999999 0.5 0  2 0.05 0  0.25 0.1 0  1.5 0.05 0  1.875 0.1 0  1.625 0.1 0  1 0 0  1.15 0.4 0  0.85 0.4 0  0.125 0.1 0  0.375 0.1 0  1.9375 0.1 0  1.8125 0.1 0  1.5625 0.1 0  1.6875 0.1 0  1.225 0.4 0  1.075 0.4 0  0.7749999999999999 0.4 0  0.925 0.4 0  0.0625 0.1 0  0.1875 0.1 0  0.4375 0.1 0  0.3125 0.1 0  0.35 0.5 0  1.65 0.5 0  0.75 0 0  1.25 0 0  0.175 0.5 0  0 0.3 0  1.825 0.5 0  2 0.3 0  0.4889999999999999 0.3240000000000001 0  0.8875 0.1859375 0  1.1125 0.1859375 0  1.511 0.324 0  0.28125 0.3046875 0  1.71875 0.3046875 0  1.317839363170347 0.1952262421135645 0  0.6824922989623865 0.1937307474059662 0  0.5249999999999999 0.5 0  1.475 0.5 0  0.1397595137420719 0.3542729254756871 0  1.858492268041237 0.2493798324742268 0  1.891114090996194 0.3812873296216695 0  0.15625 0.2257508917777052 0  0.625 0 0  1.375 0 0  0.40625 0.2251049107142857 0  1.607216430534997 0.2319583619687038 0  0.875 0 0  1.125 0 0  1.211555754201263 0.2704722952372923 0  0.8125 0.2831147354014599 0  0.9999999999999998 0.2634067062043797 0  0.5562349522048834 0.2150316271172041 0  0.6357611659109287 0.3015748226014914 0  1.384685972003155 0.3042136854298106 0  1.435339436767618 0.1981521250340491 0  1.218344435556106 0.1203999292347677 0  0.8125 0.09759059873949578 0  0.5862510293299451 0.404064301327404 0  0.9999999999999998 0.1270023634453781 0  1.5625 0.5 0  1.620981129822047 0.3800291076973605 0  0.3790188701779529 0.3800291076973606 0  0.2379041800602883 0.4076636239527968 0  1.7375 0.5 0  1.104587466335882 0.2948672842486216 0  1.434386643784329 0.400010904410431 0  0 0.2 0  2 0.2 0  1.378820276847793 0.1070997486680121 0  0.2576904130619342 0.2035551373187887 0  1.706325764667107 0.2018550836386096 0  1.75 -0.1 0  1 0.6 0  0.25 -0.1 0  0.6051071338676985 0.1198782539308636 0  0.7097341915851944 0.09459620728155076 0  0 0.4 0  0.08749999999999999 0.5 0  2 0.4 0  1.716919851969401 0.4034194442109375 0  0.9095587743115197 0.0912030448564982 0  0.4374999999999999 0.5 0  1.810111645358113 0.3313323363856588 0  0.9093239231628456 0.3025056842272159 0  1.12855529710778 0.09362792963749789 0  0.7927646158614563 0.1903526670704778 0  1.535200406348388 0.4124534322332843 0  0.4647995936516121 0.4124534322332843 0  0.7262554107726816 0.3126881060391923 0  1.29385393118661 0.3092370156738959 0  1.526617204200245 0.1879094309509875 0  1.9125 0.5 0  0.6124999999999999 0.5 0  1.3875 0.5 0  0.2625 0.5 0  0.08732005301128176 0.2822255373231005 0  1.813802944936616 0.4159974360455985 0  1.90625 0.179055426762338 0  1.295480105083921 0.07631904201107265 0  1.776173416646069 0.2455828324617562 0  1.052124204819729 0.06350118172268913 0  0.08314215524143959 0.1824325970258998 0  0.3645958242513654 0.2976386438076649 0  0.34375 0.1742613782254498 0  0.46875 0.1742613782254498 0  1.8277001247614 0.1770902144672231 0  0.08259792326838619 0.4160080671401621 0  1.1875 0 0  1.939614960150005 0.25 0  0.4876547669691238 0.2479433516107648 0  1.19092061344538 0.1943491133639654 0  0.2129874694679908 0.3365645567605458 0  0.1567097967617912 0.4272984760088865 0  1.588209480813283 0.3084004115790788 0  0.5592194988901882 0.2920997540876868 0  1.0375 0.3327166336400727 0  1.487637908104215 0.2523776924929376 0  1.027901785714286 0.5308035714285715 0  0.2779017857142857 -0.03080357142857143 0  1.777901785714286 -0.03080357142857144 0  0.3151653224076805 0.4280790720625429 0  1.168756962162846 0.3295234200864151 0  1.367191293782823 0.425 0  0.3179885097909652 0.2428185946506164 0  0.05525362682807256 0.3480682903641584 0  0.2178040625531614 0.2641665749896864 0  1.931284073038049 0.3215247493816797 0  1.592320938634953 0.1634503048594586 0  0.7391107863118056 0.2404300893851613 0  0.9640418144285923 0.1952045348248789 0  1.03828311171483 0.1907665338898573 0  0.5625 0 0  1.4375 0 0  1.434406041305029 0.06792994836871344 0  0.4047091778037926 0.4417451657763865 0  1.60625 0.4470873374280713 0  1.652835268961804 0.2838852861125848 0  0.968520705076875 0.3383633061432367 0  1.938087483892823 0.4341077984062202 0  1.070126821264438 0.1298444448878155 0  1.146027325928063 0.2431251569917195 0  1.443238177928612 0.1329810756186796 0  1.273619820642345 0.2454517928151241 0  1.8727955424459 0.4466676197704867 0  0.144720914794739 0.161857581637346 0  0.1516864507370299 0.2904843017281448 0  1.714723903403643 -0.04555219319271324 0  0.9647239034036433 0.5455521931927132 0  0.211202019110897 -0.0220866152887176 0  0.4328041531634848 0.2869537291168379 0  0.9728298217570102 0.063501181722689 0  0.5451284530929481 0.1491997399535159 0  0.6162136329796337 0.1857101410945519 0  0.2895080944586197 0.3687744429477401 0  1.341750750059536 0.3515832389346363 0  1.375641205532954 0.234767575309129 0  1.444751559540476 0.3338422273502067 0  1.37688907990521 0.1709251542413986 0  0.59375 0.05640396532218669 0  0.6583769606067219 0.05535098291689117 0  1.254510715686016 0.1758716914625949 0  0.7365017523093009 0.1552621254080563 0  1.233224213042039 0.3312123716681958 0  0.5236435083132435 0.3810155563421335 0  0.21875 0.1543838771604025 0  0.40625 0.1612687207586738 0  1.0625 0 0  0.8125 0 0  1.3125 0 0  0.9375 0 0  0.6875 0 0  1.21875 0.0561451531914653 0  1.765950179549217 0.1842639624677329 0  1.67831342925737 0.3533208805417159 0  0.4323587890178361 0.3487744537060739 0  1.078636941959972 0.2382299973669808 0  0.8125 0.3475728821662615 0  0.8420063834532494 0.228356758811999 0  0.6372101262555863 0.441680220947276 0  1.870505629542844 0.3240535515644318 0  1.550192759190401 0.2583637173885714 0  1.32193695807607 0.1328999195289147 0  0.9197592292763459 0.2402249515808653 0  1.64776864428658 0.1872678527852764 0  0.6857873721657025 0.2682159103169717 0  0 0.25 0  0.5373427190457616 0.4403593316171924 0  1.661084891520015 0.4239861270220243 0  1.156442100699449 0.1460292740584435 0  0 0.15 0  2 0.15 0  1.769802196712746 0.3755027993310504 0  0 0.45 0  0.04375 0.5 0  0.6030642503494791 0.2518099652148797 0  0.6763237910390439 0.3452768106841519 0  0.931147178445411 0.1461652756982713 0  0.2887375218332675 0.1537053706244743 0  1.558177316710844 0.3586297973800502 0  0.84375 0.04879529936974789 0  0.7621386337634271 0.0610348019982157 0  0.8384285265414047 0.1515873764702156 0  1.428555275697543 0.263188023835919 0  0.5711756747636345 0.3484585583856121 0  1.1125 0.3538238594862959 0  0.8705255601152057 0.3456934700182137 0  1.760838845163471 0.4445438062629496 0  0.2060275862872002 0.4535426186917414 0  1.723062444516319 0.1487405354022165 0  1.163389069096715 0.05018931811557627 0  1.327089695897519 0.2635919124818841 0  1.948044122097146 0.3761717807464886 0  1.415535555918383 0.4521588314281399 0  1.34375 0.04702637925968595 0  1.488309400497656 0.3777453016672654 0  1.471852517802967 0.4430357668431186 0  1.69375 0.5 0  0.6578964173371418 0.109206090398416 0  0.6242654800244544 0.3639117255960667 0  0.05567121248445504 0.2335666116841588 0  1.51875 0.5 0  0.1893916261844855 0.3847493057979278 0  0.48125 0.5 0  0.55621535123838 0.09587303205156968 0  1.396253090597469 0.3601413795122775 0  1.270205431019786 0.1261134456089319 0  0.2049308263849371 0.205332512972754 0  1.698189605041017 0.2550048538614296 0  0.3254938479686495 0.3315618715221949 0  1.05408962819384 0.283741034291944 0  0.2679479229437713 0.2537349122604314 0  1.898812753378263 0.2811963544224856 0  0.1057967071592966 0.2275495703332606 0  1.34375 0.5 0  1.633506078616799 0.3303699666199942 0  0.13125 0.5 0  0.8762042476645896 0.2649417942548087 0  1.8 -0.1 0  1.05 0.6 0  1.55 0 0  1.95 0 0  1.7 -0.1 0  0 0.35 0  2 0.35 0  0.05 0 0  0.3 -0.1 0  2 0.25 0  0.45 0 0  2 0.45 0  0.95 0.6 0  0.2 -0.1 0  0.7374999999999999 0.4 0  0.7611510190562684 0.3504690848007062 0  1.491426622286366 0.1505801380121626 0  0.5865340670064162 0.4555456997138927 0  1.711525094112363 0.4531947547604568 0  0.9523991700749173 0.2777084606998086 0  0.9196963620594245 0.3508453367496864 0  0.6498845134369121 0.2324887151424513 0 
[...]
<PointData  Vectors="f_247"> 
<DataArray  type="Float64"  Name="f_247"  NumberOfComponents="3" format="ascii">1.3199968977900672e-04 2.2177528344828443e-05 0.0000000000000000e+00  1.4666136114531206e-04 2.2176708696178123e-05 0.0000000000000000e+00  1.4666113187897752e-04 8.0832409093047633e-05 0.0000000000000000e+00  1.3199965453264780e-04 8.0832824110103972e-05 0.0000000000000000e+00  1.3753165033272545e-04 -7.4880229898391097e-05 0.0000000000000000e+00  1.4703335981312935e-04 -7.4879807691321430e-05 0.0000000000000000e+00  1.4703381683061815e-04 -3.6848442004590233e-05 0.0000000000000000e+00  1.3752133355594040e-04 -3.6846970861280190e-05 0.0000000000000000e+00  1.4761830542600314e-04 -1.5469210378812176e-04 0.0000000000000000e+00  1.5856930486548369e-04 -1.5468825706897989e-04 0.0000000000000000e+00  1.5855395153773603e-04 -1.1089566034153066e-04 0.0000000000000000e+00  1.4761456296021367e-04 -1.1089773977029997e-04 0.0000000000000000e+00  1.6629223073925462e-04 -3.4202840473741744e-04 0.0000000000000000e+00  1.9451051321415041e-04 -3.4202426816133484e-04 0.0000000000000000e+00  1.9447207481155658e-04 -2.2919109636002191e-04 0.0000000000000000e+00  1.6629572107492113e-04 -2.2919641920920932e-04 0.0000000000000000e+00  2.0904592812484273e-04 -7.0121446435205087e-04 0.0000000000000000e+00  2.5187130723781980e-04 -7.0121675094210576e-04 0.0000000000000000e+00  2.5183782478190904e-04 -5.2987111283861422e-04 0.0000000000000000e+00  2.0901422280142395e-04 -5.2987058003346255e-04 0.0000000000000000e+00  -2.9855998119083463e-04 -1.5892600567823860e-03 0.0000000000000000e+00  -2.6482368590274050e-04 -1.5892671568754008e-03 0.0000000000000000e+00  -2.6489223810486435e-04 -1.4542913129863776e-03 0.0000000000000000e+00  -2.9863193347174364e-04 -1.4542850198127275e-03 0.0000000000000000e+00  -1.7345587054932719e-04 -1.8660836675634899e-03 0.0000000000000000e+00  -1.4303597877153346e-04 -1.8660857518627389e-03 0.0000000000000000e+00  -1.4310888880560808e-04 -1.7443037997731305e-03 0.0000000000000000e+00  -1.7355302657187405e-04 -1.7442971772682410e-03 0.0000000000000000e+00  -5.4801021373296592e-05 -1.9918992928816539e-03 0.0000000000000000e+00  -4.6495212058299517e-05 -1.9918989772080248e-03 0.0000000000000000e+00  -4.6544447851009689e-05 -1.9586013220079905e-03 0.0000000000000000e+00  -5.4879866816614933e-05 -1.9586015564159462e-03 0.0000000000000000e+00  5.4816808871806616e-05 -1.9575080295153959e-03 0.0000000000000000e+00  4.6114735529559276e-05 -1.9575082973159251e-03 0.0000000000000000e+00  4.6066473709283682e-05 -1.9922669016142090e-03 0.0000000000000000e+00  5.4737042864583839e-05 -1.9922671134854591e-03 0.0000000000000000e+00  1.7319911787163400e-04 -1.7449980869536216e-03 0.0000000000000000e+00  1.4288725511464969e-04 -1.7450048000633165e-03 0.0000000000000000e+00  1.4281435469692903e-04 -1.8662590401531420e-03 0.0000000000000000e+00  1.7310296621007531e-04 -1.8662565649379796e-03 0.0000000000000000e+00  2.9812750129728924e-04 -1.4548858689362792e-03 0.0000000000000000e+00  2.6432592923691733e-04 -1.4548922575286552e-03 0.0000000000000000e+00  2.6425772727255869e-04 -1.5901164813707581e-03 0.0000000000000000e+00  2.9805582691966759e-04 -1.5901091787795627e-03 0.0000000000000000e+00  -2.0863571415574093e-04 -5.2910423923006910e-04 0.0000000000000000e+00  -2.5133960007445497e-04 -5.2910496260462890e-04 0.0000000000000000e+00  -2.5137195245758764e-04 -6.9997041978137932e-04 0.0000000000000000e+00  -2.0866661879159545e-04 -6.9996806699370283e-04 0.0000000000000000e+00  -1.6644094727289973e-04 -2.2929713988733186e-04 0.0000000000000000e+00  -1.9453190684076414e-04 -2.2929207265400114e-04 0.0000000000000000e+00  -1.9456803615840564e-04 -3.4177527015539930e-04 0.0000000000000000e+00  -1.6643751592643256e-04 -3.4177935569617988e-04 0.0000000000000000e+00  -1.4750511488971905e-04 -1.1091350013230584e-04 0.0000000000000000e+00  -1.5841101011325657e-04 -1.1091156316661792e-04 0.0000000000000000e+00  -1.5842544887889254e-04 -1.5456532524546409e-04 0.0000000000000000e+00  -1.4750896356407599e-04 -1.5456930269101422e-04 0.0000000000000000e+00  -1.3688138949929487e-04 -3.7244573167123977e-05 0.0000000000000000e+00  -1.4622538796743456e-04 -3.7246063634858398e-05 0.0000000000000000e+00  -1.4622437773098636e-04 -7.4603008927417091e-05 0.0000000000000000e+00  -1.3689111647810750e-04 -7.4603447966564942e-05 0.0000000000000000e+00  -1.3165501857989343e-04 8.0350486723484597e-05 0.0000000000000000e+00  -1.4624365479587077e-04 8.0350029916866024e-05 0.0000000000000000e+00  -1.4624364580087299e-04 2.1985831733521893e-05 0.0000000000000000e+00  -1.3165505988344987e-04 2.1986735164972233e-05 0.0000000000000000e+00  -1.0107963538746473e-04 -6.1626845226854689e-05 0.0000000000000000e+00  0.0000000000000000e+00 0.0000000000000000e+00 0.0000000000000000e+00  0.0000000000000000e+00 0.0000000000000000e+00 0.0000000000000000e+00  -1.2730652591162519e-04 -8.1957208552981716e-05 0.0000000000000000e+00  -2.3725951472457207e-04 -2.2223496010763210e-04 0.0000000000000000e+00  -3.1110452612427146e-04 -4.1233816533211112e-04 0.0000000000000000e+00  -3.9778213125608272e-04 -7.9192565823148079e-04 0.0000000000000000e+00  -1.4409572323957308e-04 -7.9192685258449907e-04 0.0000000000000000e+00  -8.8067485138053735e-05 1.1589118779251601e-04 0.0000000000000000e+00  -1.9255476940968744e-04 1.0726972288555260e-04 0.0000000000000000e+00  -1.7772564063961831e-04 -1.6206302463677189e-05 0.0000000000000000e+00  -1.5759036464043581e-04 -6.1031670186023599e-05 0.0000000000000000e+00  4.6069299217538727e-04 -1.3714642393944517e-03 0.0000000000000000e+00  2.3637058552690210e-04 -1.3890351741566958e-03 0.0000000000000000e+00  -2.3709846224772955e-04 -1.3876600304493416e-03 0.0000000000000000e+00  -4.6199667569730453e-04 -1.3712097450294801e-03 0.0000000000000000e+00  -2.3097912969410214e-04 -1.8280520938729196e-03 0.0000000000000000e+00  -1.3055837854939752e-04 -1.9723252903812651e-03 0.0000000000000000e+00  -4.6574722302104058e-05 -2.1030572606878014e-03 0.0000000000000000e+00  -7.1132429915041249e-06 -2.2419118642708004e-03 0.0000000000000000e+00  8.5078147103744016e-06 -2.2390023389702923e-03 0.0000000000000000e+00  4.7116072264840339e-05 -2.0992002597746383e-03 0.0000000000000000e+00  1.2903989714857378e-04 -1.9739199655963808e-03 0.0000000000000000e+00  2.3014296777152738e-04 -1.8287520133946241e-03 0.0000000000000000e+00  1.2799134542122370e-04 -8.0754155989600746e-05 0.0000000000000000e+00  0.0000000000000000e+00 0.0000000000000000e+00 0.0000000000000000e+00  0.0000000000000000e+00 0.0000000000000000e+00 0.0000000000000000e+00  1.0142243638177568e-04 -6.1235293117811726e-05 0.0000000000000000e+00  1.5820194112041872e-04 -5.9905798169169332e-05 0.0000000000000000e+00  1.7851966332530902e-04 -1.6089053917885193e-05 0.0000000000000000e+00  1.9321186326353901e-04 1.0786321254196480e-04 0.0000000000000000e+00  8.8111993191032628e-05 1.1624172247686337e-04 0.0000000000000000e+00  1.4496802168836447e-04 -7.9334582152197240e-04 0.0000000000000000e+00  3.9717787019596869e-04 -7.9377377974390552e-04 0.0000000000000000e+00  3.1235769416553178e-04 -4.1356318985123107e-04 0.0000000000000000e+00  2.4010445932809481e-04 -2.2284687510261970e-04 0.0000000000000000e+00  5.3307166737853132e-04 1.7942464609177898e-04 0.0000000000000000e+00  -5.3360797338448691e-04 1.7971891107296611e-04 0.0000000000000000e+00  1.0952946836434056e-04 -1.6264816272476933e-04 0.0000000000000000e+00  -2.4650775248219854e-04 -7.8987136122002019e-04 0.0000000000000000e+00  -1.3873354865286025e-04 1.0828475782054442e-04 0.0000000000000000e+00  -3.2580090003450145e-07 -1.9488738700018844e-03 0.0000000000000000e+00  3.2421035298146845e-04 -1.3813321714831483e-03 0.0000000000000000e+00  -3.2512291867844463e-04 -1.3810742967242805e-03 0.0000000000000000e+00  -3.7566624982362726e-04 -1.5804300184974970e-03 0.0000000000000000e+00  3.7516086862732050e-04 -1.5813343097701648e-03 0.0000000000000000e+00  1.3910850579167803e-04 1.0887441387005829e-04 0.0000000000000000e+00  -1.0952787772428287e-04 -1.6195507745670097e-04 0.0000000000000000e+00  2.4794601162516017e-04 -7.9145386603721559e-04 0.0000000000000000e+00  9.7034290065660489e-05 -3.0380140122132590e-05 0.0000000000000000e+00  1.1783552582232564e-04 -3.9566374785905012e-04 0.0000000000000000e+00  4.3530539329636657e-07 -1.7703113629048957e-03 0.0000000000000000e+00  -1.0982208531407271e-04 -1.7759208215624427e-03 0.0000000000000000e+00  1.1089550507631778e-04 -1.7763782504524191e-03 0.0000000000000000e+00  -9.6490275305812347e-05 -3.0440881856224136e-05 0.0000000000000000e+00  -1.1791222191849224e-04 -3.9588836290400947e-04 0.0000000000000000e+00  9.1312553771932237e-05 4.3107179656976645e-05 0.0000000000000000e+00  1.0424420016764468e-04 -9.4145372953987396e-05 0.0000000000000000e+00  1.2875587887284262e-04 -5.8986467343330505e-04 0.0000000000000000e+00  1.1372493965888449e-04 -2.5527641817157151e-04 0.0000000000000000e+00  -1.7405428190565543e-04 -1.5927447050108664e-03 0.0000000000000000e+00  -5.4582488437011885e-05 -1.9072964865769356e-03 0.0000000000000000e+00  1.7308033867438597e-04 -1.5944350429226146e-03 0.0000000000000000e+00  5.4004453858932228e-05 -1.9079490607993050e-03 0.0000000000000000e+00  -9.1684840901796896e-05 4.2987095595556739e-05 0.0000000000000000e+00  -1.0315782543892456e-04 -9.3976277399362510e-05 0.0000000000000000e+00  -1.3028750218904237e-04 -5.9022322607379279e-04 0.0000000000000000e+00  -1.1358671203467584e-04 -2.5503342056858673e-04 0.0000000000000000e+00  5.6716965921928774e-04 -4.6037422683089705e-04 0.0000000000000000e+00  -5.6756989991706217e-04 -4.5987343563773906e-04 0.0000000000000000e+00  -3.0043508731251219e-04 -1.4805210659794045e-03 0.0000000000000000e+00  3.0233260466176867e-04 -1.4783539174813337e-03 0.0000000000000000e+00  5.4147073463346718e-04 -1.1660977089335915e-04 0.0000000000000000e+00  1.8625126520823527e-04 1.6430752625813764e-04 0.0000000000000000e+00  -5.4225076376601374e-04 -1.1706424278311249e-04 0.0000000000000000e+00  -1.8702494439579005e-04 1.6473190997179883e-04 0.0000000000000000e+00  2.0465225868995609e-04 -7.9900291642178941e-04 0.0000000000000000e+00  -2.2368479342335013e-05 -1.7458026653135452e-03 0.0000000000000000e+00  2.1400379292495979e-05 -1.7456994987317045e-03 0.0000000000000000e+00  -2.0506032363782847e-04 -7.9918980872483586e-04 0.0000000000000000e+00  1.9176975394198176e-04 -2.9563660190396477e-04 0.0000000000000000e+00  -1.9251548675800403e-04 -2.9710068889549231e-04 0.0000000000000000e+00  1.8524491776078285e-05 -1.3327051698623839e-03 0.0000000000000000e+00  -2.0464508978305248e-05 -1.3345262354013865e-03 0.0000000000000000e+00  5.5553422278867260e-04 -8.9604267305777618e-04 0.0000000000000000e+00  -5.5594758099399347e-04 -8.9619778510455325e-04 0.0000000000000000e+00  2.7788865124784179e-04 -5.4651992881143651e-05 0.0000000000000000e+00  -1.0171357276368053e-04 -5.3197721455952250e-05 0.0000000000000000e+00  -3.2592966021002535e-04 -4.6341802051060736e-06 0.0000000000000000e+00  6.4893734971869339e-05 -7.3336406150331781e-05 0.0000000000000000e+00  -3.7923354104081906e-04 -1.1690840691698683e-03 0.0000000000000000e+00  3.7844210941814462e-04 -1.1671888281720563e-03 0.0000000000000000e+00  6.3114341561275078e-05 -5.5225437937895139e-04 0.0000000000000000e+00  -7.5043791198440782e-05 -5.1908737221485399e-04 0.0000000000000000e+00  -1.6911979031694540e-04 -1.6945740290194096e-03 0.0000000000000000e+00  1.6999153178669747e-04 -1.6913835237919055e-03 0.0000000000000000e+00  -3.8519525803608873e-05 -1.6020681627398428e-03 0.0000000000000000e+00  4.1450200192196504e-05 -1.6570662469109140e-03 0.0000000000000000e+00  -4.3784026006118706e-07 -1.8497571151041578e-03 0.0000000000000000e+00  2.7749637537780745e-05 -9.7887808200821432e-04 0.0000000000000000e+00  1.2619849555313358e-04 -1.2121034903697626e-03 0.0000000000000000e+00  -1.3812244115816684e-04 -1.1541974366440551e-03 0.0000000000000000e+00  -2.8278476558800291e-06 -1.0031764813425649e-03 0.0000000000000000e+00  9.7123994203036709e-05 -1.5623457470196607e-03 0.0000000000000000e+00  -1.0997247809827993e-04 -1.6150573996468423e-03 0.0000000000000000e+00  3.1439711979091331e-04 -1.0697799022797365e-03 0.0000000000000000e+00  7.4510401349445275e-07 -1.7993161410940763e-03 0.0000000000000000e+00  -5.7062241687929499e-04 -6.6877962206363139e-04 0.0000000000000000e+00  -3.2083603264808938e-04 -5.2218779381371118e-04 0.0000000000000000e+00  3.2077109681999367e-04 -5.2210881057398865e-04 0.0000000000000000e+00  3.7590213449944436e-04 -2.2714145580297540e-04 0.0000000000000000e+00  -5.5471428310743061e-04 -2.7755780802332105e-04 0.0000000000000000e+00  -2.5367837041371812e-05 -1.8000915794929855e-03 0.0000000000000000e+00  -3.1505665303743552e-04 -1.0124377575108335e-03 0.0000000000000000e+00  3.2843908862064422e-05 1.4126722422361598e-04 0.0000000000000000e+00  -3.2819947922985527e-05 1.4280989188332160e-04 0.0000000000000000e+00  1.4394507651307851e-04 -1.1614981486853166e-03 0.0000000000000000e+00  3.0047782975917417e-05 -2.2055287222145744e-04 0.0000000000000000e+00  -2.9057983466355574e-05 -2.8516092010377942e-04 0.0000000000000000e+00  0.0000000000000000e+00 0.0000000000000000e+00 0.0000000000000000e+00  1.0736734679575915e-06 -2.2499796030952539e-03 0.0000000000000000e+00  0.0000000000000000e+00 0.0000000000000000e+00 0.0000000000000000e+00  -1.2139647030869650e-04 -1.1165406749579585e-03 0.0000000000000000e+00  -1.5187062183315181e-04 -1.3974442788515513e-03 0.0000000000000000e+00  3.5922586444627375e-04 1.7672066731108516e-04 0.0000000000000000e+00  5.3450374130332946e-04 3.1188699557660850e-05 0.0000000000000000e+00  -3.5933344124901029e-04 1.7730827803334680e-04 0.0000000000000000e+00  -3.6922665303964315e-04 -3.1501444830723147e-04 0.0000000000000000e+00  -6.0688613502642594e-05 -1.7459585008681704e-03 0.0000000000000000e+00  5.7035416151288588e-04 -6.6769503815486842e-04 0.0000000000000000e+00  -2.3761244313758273e-04 -1.3695147403682803e-04 0.0000000000000000e+00  2.3625696955059872e-05 -1.8210190778913437e-03 0.0000000000000000e+00  8.3357293595579971e-05 -1.7063711337107160e-03 0.0000000000000000e+00  -2.9124504285577127e-05 -1.5946373481620579e-03 0.0000000000000000e+00  -3.7104576639367755e-04 -7.3849863300720435e-04 0.0000000000000000e+00  3.6920768730296864e-04 -7.3829202242523917e-04 0.0000000000000000e+00  1.0283634466202862e-04 -1.4584756391203839e-03 0.0000000000000000e+00  -1.0760350121313186e-04 -1.4052632705614876e-03 0.0000000000000000e+00  -2.6352934443068812e-06 -7.2946728287862322e-04 0.0000000000000000e+00  -5.3488810280202510e-04 3.1112950118718994e-05 0.0000000000000000e+00  5.1889651743034101e-04 -1.1328958160472620e-03 0.0000000000000000e+00  -5.1672260844073210e-04 -1.1315478777731867e-03 0.0000000000000000e+00  5.5553978864306532e-04 -2.7702732344879049e-04 0.0000000000000000e+00  1.5562673016398791e-04 2.6733075182696548e-05 0.0000000000000000e+00  -3.9054056757171460e-04 -1.3547631975940823e-04 0.0000000000000000e+00  2.6238464281176567e-07 1.2573054843181156e-05 0.0000000000000000e+00  1.8345199788648165e-04 -1.3846629087040780e-03 0.0000000000000000e+00  -9.4123375147776538e-05 -1.7873750359762613e-04 0.0000000000000000e+00  4.5982711380566807e-05 -1.7729872807765946e-03 0.0000000000000000e+00  5.1792806326451729e-06 2.6425435936999175e-05 0.0000000000000000e+00  1.7821624606482875e-04 -4.7506148302748383e-04 0.0000000000000000e+00  -1.1924070476034689e-05 -3.7407395886994373e-04 0.0000000000000000e+00  -1.7212313013729107e-05 -7.1097931324650440e-04 0.0000000000000000e+00  7.3177642483017796e-06 -8.9470014320353262e-05 0.0000000000000000e+00  3.8741918227745806e-04 3.8831876327712193e-05 0.0000000000000000e+00  2.4264654037706829e-04 -1.6008980459485446e-03 0.0000000000000000e+00  -1.0460392773350211e-04 6.4195715153944261e-05 0.0000000000000000e+00  8.8190618917375528e-05 -7.8479526092825418e-04 0.0000000000000000e+00  2.3278192944403669e-05 -1.6270811679590228e-03 0.0000000000000000e+00  2.4676595845766526e-04 -1.7537365677035204e-04 0.0000000000000000e+00  4.0940992831706456e-04 -8.3999768200247087e-05 0.0000000000000000e+00  -1.9207440298716269e-04 -5.9185021691570360e-04 0.0000000000000000e+00  1.3790859573170285e-04 -9.9415787662067564e-04 0.0000000000000000e+00  -1.4132340939380031e-05 -1.8847493841902417e-03 0.0000000000000000e+00  -9.0993000275687162e-05 -8.5635038883357946e-04 0.0000000000000000e+00  -2.2526389659145080e-05 -2.1021222128046356e-03 0.0000000000000000e+00  -1.3509411084528729e-04 -8.4726272260586351e-05 0.0000000000000000e+00  1.2331594131675841e-04 -5.7859768424469620e-05 0.0000000000000000e+00  4.1622800262828310e-04 -3.8216566312691017e-04 0.0000000000000000e+00  -6.8118000386463364e-05 -1.7079451664234408e-03 0.0000000000000000e+00  -3.2740394807797359e-04 -1.1975531587677534e-03 0.0000000000000000e+00  9.0964853064973212e-05 -3.5260328945476132e-04 0.0000000000000000e+00  2.6758892943456086e-04 8.1031290082875313e-05 0.0000000000000000e+00  1.2428581567510533e-04 -1.7280807059791233e-04 0.0000000000000000e+00  -2.2152140500556280e-04 5.7931517057845309e-05 0.0000000000000000e+00  2.7930258156345275e-05 -5.3004359346753814e-04 0.0000000000000000e+00  2.3462136895849488e-05 -1.4814619538319840e-03 0.0000000000000000e+00  -6.7855079249719212e-06 -1.8143219320712000e-03 0.0000000000000000e+00  6.5602041906449263e-06 -1.8097046103404907e-03 0.0000000000000000e+00  -3.9372457195892551e-04 -9.8925961419670601e-04 0.0000000000000000e+00  3.9058941324596013e-04 -9.8811569836659515e-04 0.0000000000000000e+00  2.1896871503013156e-04 -9.9877674076942350e-04 0.0000000000000000e+00  4.4145539736919375e-04 -5.8642933367935939e-04 0.0000000000000000e+00  -4.5432250724405839e-04 -5.6090616817170487e-04 0.0000000000000000e+00  -1.5629385881879999e-04 -4.3110242427320331e-04 0.0000000000000000e+00  1.2108603352468922e-05 -1.8925911113792447e-03 0.0000000000000000e+00  -4.1959973028025754e-04 7.3796973155642085e-05 0.0000000000000000e+00  3.3361147341588408e-05 -1.7737327464055965e-03 0.0000000000000000e+00  -7.1096397587760415e-06 -1.7167844918134301e-03 0.0000000000000000e+00  9.5368080302926986e-05 -9.7417194606809530e-04 0.0000000000000000e+00  -3.1331185148398724e-05 -1.4496555699226369e-03 0.0000000000000000e+00  -4.4354113621114814e-04 -3.5048885376284874e-05 0.0000000000000000e+00  -2.6094359677000092e-05 -5.2436987997662758e-05 0.0000000000000000e+00  1.6838412528420732e-04 -7.1447632150469119e-05 0.0000000000000000e+00  1.1671875962662517e-04 -7.3095572725555868e-05 0.0000000000000000e+00  2.3099863629905349e-05 -2.1279636352415842e-03 0.0000000000000000e+00  -1.3381358207294845e-04 -6.1325314269536975e-05 0.0000000000000000e+00  1.5626714634454166e-04 -6.4125906978312929e-04 0.0000000000000000e+00  -2.4237752183579100e-05 -1.7812233990248728e-03 0.0000000000000000e+00  -6.8538840863208801e-05 -9.4002383022600373e-04 0.0000000000000000e+00  -2.4346206597887890e-05 -1.1520127980064463e-03 0.0000000000000000e+00  3.0465272412392102e-04 -3.2341897752386476e-04 0.0000000000000000e+00  -1.8581448606905124e-04 -1.2741171144894244e-03 0.0000000000000000e+00  -4.0821400190108849e-05 -1.1773334898977513e-03 0.0000000000000000e+00  -2.0268172223012533e-04 -9.8446351245830960e-04 0.0000000000000000e+00  4.4390013302281728e-05 -1.1701458467038627e-03 0.0000000000000000e+00  -2.4418045176644395e-04 -1.0822005331869791e-03 0.0000000000000000e+00  -2.3639020625864426e-04 -1.2631292418481183e-03 0.0000000000000000e+00  4.4300638288004725e-05 -1.4901612530618920e-03 0.0000000000000000e+00  -6.8174841994341886e-05 -1.4669618813406237e-03 0.0000000000000000e+00  -1.0250292453839247e-04 -1.5610110060451212e-03 0.0000000000000000e+00  2.9537844279862324e-04 -8.9597837431274288e-04 0.0000000000000000e+00  -3.9982922128695916e-05 -1.4558493938709015e-04 0.0000000000000000e+00  -3.1440942625286959e-05 -5.2363163493572497e-04 0.0000000000000000e+00  8.3417635046111621e-05 -1.7506620168814106e-03 0.000000