<?xml version="1.0"?>
<VTKFile type="UnstructuredGrid"  version="0.1"  >
<UnstructuredGrid>
<Piece  NumberOfPoints="385" NumberOfCells="672">
<Points>
<DataArray  type="Float64"  NumberOfComponents="3"  format="ascii">0.04999999999999999 -0.05 0  0.04999999999999999 -0.1 0  0.35 -0.1 0  0.35 -0.05 0  0.3646446609406727 -0.01464466094067262 0  0.4 0 0  0 0 0  0.03535533905932739 -0.01464466094067263 0  1.2 0.5 0  1.164644660940673 0.5146446609406726 0  1.15 0.5499999999999999 0  1.15 0.6 0  0.85 0.6 0  0.85 0.55 0  0.8353553390593274 0.5146446609406726 0  0.8 0.5 0  1 0.5 0  1.65 -0.05 0  1.65 -0.1 0  1.95 -0.1 0  1.95 -0.05 0  1.964644660940673 -0.01464466094067262 0  2 0 0  1.6 0 0  1.635355339059327 -0.01464466094067263 0  0 0.5 0  2 0.5 0  1.123463313526982 0.5 0  0.8765366864730179 0.5 0  1.8 0 0  1 0.6 0  1 0 0  0.2 0 0  1.161731656763491 0.5 0  0.838268343236509 0.5 0  1.8 -0.1 0  1.676536686473018 0 0  1.923463313526982 0 0  0.2 -0.1 0  0.07653668647301798 0 0  0.3234633135269821 0 0  1.638268343236509 0 0  1.961731656763491 0 0  0.03826834323650899 0 0  0.3617316567634911 0 0  0.4 0.5 0  1.6 0.5 0  0.7 0 0  1.3 0 0  1.45 0.25 0  0.55 0.25 0  0 0.25 0  2 0.25 0  1.142597485145237 0.2300320737537709 0  0.85 0.2276376317704163 0  0.285990040996415 0.261594024597849 0  1.714009959003585 0.261594024597849 0  0.6000000000000001 0.5 0  0.2 0.5 0  1.4 0.5 0  1.8 0.5 0  1.289816039914905 0.3398160399149053 0  0.7077126700397157 0.3422873299602843 0  0.1467803473435396 0.1624242778748317 0  0.1394417084397257 0.3434466332482194 0  1.861731656763491 0.1556146745892071 0  1.860558291560275 0.3434466332482196 0  0.9955119050154341 0.3249853095492683 0  1.300881110517708 0.1694713336893754 0  0.6946299886511431 0.1667779931906858 0  0.55 0 0  0.85 0 0  1.45 0 0  1.15 0 0  0.996852508278381 0.1611654525460006 0  0.5 0.39 0  0.475 0.125 0  1.586138014467139 0.1616828086802834 0  1.578171178673595 0.3430972927958431 0  0.8574025148547635 0.3643903326100874 0  1.704519823039579 0.3997277490318272 0  1.125187483218582 0.3644601645365413 0  1.728622491602021 0.1260197529734516 0  0.3668356180384226 0.369396016398566 0  0.4174989389936684 0.244500636603799 0  0.3364451020116006 0.1353406679757719 0  1.413529753698618 0.3727059507397236 0  0 0.125 0  1.465624539010579 0.125 0  2 0.125 0  0 0.375 0  2 0.375 0  1.189854954492392 0.1164176914396247 0  0.2491948326781633 0.390981030726397 0  0.8049791111024175 0.1138188158852082 0  1.5 0.5 0  0.5851967776750773 0.1438819333949536 0  1.081675384050745 0.08842146301764935 0  0.9125026391665824 0.0905362258155708 0  0.5993569606780055 0.346556057385002 0  0.1 0.5 0  1.9 0.5 0  1.375 0 0  0.5 0.5 0  0.3 0.5 0  0.7000000000000001 0.5 0  1.3 0.5 0  1.7 0.5 0  0.9461804770252713 0.4138152616497669 0  0.2617316567634911 0.07421419652591436 0  0.244909325711767 0.171968355077634 0  1.817034704476407 0.2492551020055941 0  1.040980949125798 0.4083493977770402 0  1.3375 0.08454298843807478 0  0.625 0 0  1.36860276920115 0.2925801480623346 0  1.215148757403553 0.4032218354483463 0  1.200577530603704 0.3058826085866273 0  1.525 0 0  0.6500000000000001 0.4230671457124818 0  1.90857502414121 0.2354619110679516 0  0.7905170807333906 0.2994341837927901 0  0.75 0.4234002424784839 0  0.6501961898359074 0.2596753276390638 0  1.54727288879929 0.2508582169411898 0  0.1002301951700289 0.2511970683518928 0  0.1934810241867359 0.2497686588574864 0  0.6625 0.08226800388484215 0  0.08655792543028694 0.09206739689822573 0  1.504168046771446 0.4041522259832797 0  1.077043436481846 0.2898835059872709 0  0.9452696763165686 0.2426587434950551 0  1.5625 0.07822054972062803 0  1.649892654159507 0.08706667137890201 0  0.1765842685594888 0.0822587104395356 0  1.292181666908784 0.2544379741340347 0  1.385511538767743 0.155603041017382 0  1.35 0.4303195841236363 0  1.220175669253378 0.19566495049145 0  0.15 0.4293517775409398 0  1.769264245685337 0.3347829941122768 0  1.807893615632279 0.4130641003482012 0  1.919379802473649 0.08843176474666048 0  1.807089343776275 0.08723936413000266 0  0.4813766720827983 0.3044202400295708 0  1.632024956633282 0.2347385716612421 0  0.7644463338215598 0.2172959020640437 0  2 0.3125 0  1.496993526469801 0.3200800486313914 0  1.888836387303878 0.4195674241496744 0  1.001398662983086 0.08064077613468983 0  1.080475204134134 0.1728477016834934 0  0.06510950302328256 0.1761894446609235 0  1.225 0 0  0 0.4375 0  0.07773334742652091 0.3946323983359701 0  0 0.3125 0  0.925 0.6 0  0.9382683432365089 0.5 0  0.2617316567634911 0 0  0.275 -0.1 0  1.861731656763491 0 0  1.875 -0.1 0  1.738268343236509 0 0  1.725 -0.1 0  0.138268343236509 0 0  0.125 -0.1 0  1.075 0.6 0  1.061731656763491 0.5 0  1.620855120864411 0.4171287645507745 0  1.661094029765151 0.3273514269077803 0  0.9077244969835864 0.1711556850768535 0  0.7403737668750456 0.06808422746287666 0  0.570660718425134 0.4262175287044237 0  0.2320037204566325 0.316166772323643 0  1.787033004289842 0.177446820662441 0  1.022543090860011 0.2344986735531039 0  1.264294260912583 0.1033373093822256 0  0.9181819231970473 0.315684036383676 0  1.513751357476381 0.1831916442732244 0  0.925 0 0  0.475 0 0  0.7749999999999999 0 0  1.075 0 0  0.4022506052977472 0.08364963682135169 0  0.4266046813836183 0.4237315285305621 0  0.5396355263395196 0.07878131580371178 0  1.661888004919122 0.1618610855839999 0  0.35 0.4431838212049133 0  0.5219816546787068 0.1818110071927759 0  0.3033695309998214 0.332776229634401 0  0.3555497650481295 0.2823234184648686 0  0.3393236876519485 0.2096994896775729 0  2 0.1875 0  1.933780503012274 0.34375 0  0.0720119612487275 0.3176498712347302 0  1.931622366812704 0.1682766646310598 0  1.45 0.4498111814609514 0  1.413147152962427 0.06808297484668813 0  1.142597485145237 0.4324625170953281 0  0.4078363436426746 0.1584931003562632 0  1.75 0.5 0  1.49513622964246 0.06241638041593596 0  1.35633353230923 0.221533422951547 0  1.279422645790806 0.432455226771864 0  0.7253372840215077 0.2749157186055529 0  2 0.4375 0  0.8228037425728282 0.4286632604012565 0  0.3294042256695264 0.06772308791171579 0  1.55 0.5 0  0.6045067262078456 0.2091825631224692 0  0.4841666140142382 0.2371996838617051 0  0.4344214904129176 0.3550922976924773 0  2 0.0625 0  0 0.0625 0  0.7700722425432284 0.3613563235338065 0  0.8561663517359499 0.293285267389463 0  1.349191517525037 0.3655945763115646 0  1.433491673285216 0.3118662079470123 0  1.711622951239796 0.06133953301993504 0  1.721562536298485 0.1929230668355466 0  1.442885032754246 0.1856341504565053 0  0.5445920763840164 0.3136574206971657 0  0.4791508326757359 0.0625 0  0 0.1875 0  1.13951065066643 0.292476847106251 0  0.8843869209295526 0.4203652133214066 0  1.064523652680738 0.3507942086535084 0  1.145459766576558 0.1645871555100727 0  1.1875 0.05219298948689095 0  0.6016408969550827 0.06032847962045967 0  0.8509479663263209 0.06618835270236439 0  0.8443033869335375 0.1640775340563604 0  0.7449314482125747 0.1301444988388622 0  1.611437987467108 0.2920688427445818 0  0.25 0.5 0  0.288158881264942 0.439170583159855 0  1.85 0.5 0  1.948012934298784 0.40625 0  0.1883304151550907 0.381039311491128 0  0.2108644175230726 0.4392934967762088 0  1.948162344535538 0.28125 0  0.5970833092729163 0.2860583155714317 0  1.868848033795945 0.2824647929749151 0  1.95 0.5 0  0.05 0.5 0  1.030865828381746 0.55 0  0.9625 0.5540953840524817 0  0.2308658283817455 -0.05000000000000001 0  0.1625 -0.05409538405248179 0  1.8375 -0.05409538405248181 0  1.7625 -0.05409538405248181 0  1.563604039941789 0.4008169581191851 0  1.083851875249522 0.2315149296371726 0  1.525217446107564 0.1247115056210421 0  1.65 0.5 0  1.670546248771363 0.4462135355491759 0  0.2229011635247071 0.117856470359846 0  0.4617686282210948 0.182555285285046 0  1.817996250971953 0.3066064744376768 0  0.7083577274699521 0.2213085566007509 0  1.863510548528431 0.06184647636530248 0  1.232039451256177 0.2546257173428674 0  0.4256233498217159 0.2998480136501412 0  1.139991024937337 0.08609054734000993 0  0.6381565965613784 0.1637266394258494 0  1.04381908229492 0.1301049584104911 0  0.7886580358818307 0.1671027688431766 0  0.9057886815224064 0.5475669777163904 0  1.706964450927479 -0.04699716090325601 0  1.894211318477594 -0.04756697771639051 0  0.2942113184775936 -0.04756697771639042 0  0.1057886815224064 -0.04756697771639045 0  1.092597485145236 0.5467848606087272 0  1.769134171618254 0.04641598701701004 0  0.9529884659718879 0.04999411035765091 0  1.764648103935829 0.2289708321231474 0  0.7955160146357139 0.05868800520693245 0  1.242812582603986 0.05236624593280521 0  1.752049439514398 0.4386201644258909 0  0.9485857177361723 0.1331261171199641 0  0.5164215593051467 0.445 0  1.0375 0.03968210387338315 0  0.05478137756630722 0.4449248979469542 0  0.5524716273993022 0.3746659987047405 0  0.6525477456979226 0.3193663030002285 0  1.714244090919379 0.3446772892595953 0  0.1778795279837062 0.3031943559787912 0  1.109020068941062 0.04189436348558748 0  0.3135089235834518 0.388510276755836 0  1.536418417024497 0.4476126447780269 0  1.771081973848059 0.2816969217742885 0  0.45 0.5 0  0.1074025148547635 0.04321944242105765 0  1.0856167410074 0.4464177576733382 0  1.755548976891541 0.3858547638382469 0  0.5344314962249038 0.1309169370405511 0  1.25 0.5 0  0.05210721438477812 0.05143917949026266 0  1.834145294250147 0.1999347122130351 0  0.6632261900632107 0.371510371582032 0  1.955641516601844 0.214061958434503 0  1.26224103908136 0.2963301950887234 0  1.225 0.4543385630652054 0  0.8942534454394016 0.2565942826843259 0  1.233285787977527 0.1452247822942686 0  0.9521913783223767 0.3590403954102375 0  1.402959200459141 0.4248834538414245 0  0.2988311517486338 0.1740319116149725 0  0.2757694627505424 0.1258000184360167 0  0.9691341716182544 0.4593780639570986 0  1.000739477952067 0.3762161205078692 0  0.7092329343623044 0.3930742315675601 0  0.7013364476378072 0.4462538893399139 0  1.927577376389925 0.4535791974534015 0  0.4318785630121672 0.04099739759539551 0  1.0308658283817
[...]
<PointData  Tensors="f_309"> 
<DataArray  type="Float64"  Name="f_309"  NumberOfComponents="9" format="ascii">-1.7632695221653764e+03 -1.0726966482846290e+04 0.0000000000000000e+00 -1.0726966482846290e+04 5.1471242775573492e+03 0.0000000000000000e+00 0.0000000000000000e+00 0.0000000000000000e+00 0.0000000000000000e+00  -1.1284636274745830e+02 -1.2088619230513743e+04 0.0000000000000000e+00 -1.2088619230513743e+04 -1.0369402924076092e+04 0.0000000000000000e+00 0.0000000000000000e+00 0.0000000000000000e+00 0.0000000000000000e+00  -1.1922913759055260e+04 -2.4229260096040100e+04 0.0000000000000000e+00 -2.4229260096040100e+04 -1.0345608853002326e+05 0.0000000000000000e+00 0.0000000000000000e+00 0.0000000000000000e+00 0.0000000000000000e+00  -3.1061536533311621e+04 -4.0996825415499370e+04 0.0000000000000000e+00 -4.0996825415499370e+04 -1.6846931116002449e+05 0.0000000000000000e+00 0.0000000000000000e+00 0.0000000000000000e+00 0.0000000000000000e+00  -1.2956243595538560e+05 -7.0848054512417031e+04 0.0000000000000000e+00 -7.0848054512417031e+04 -2.0091019237682331e+05 0.0000000000000000e+00 0.0000000000000000e+00 0.0000000000000000e+00 0.0000000000000000e+00  -1.0718323641476013e+05 -2.9764871356162028e+04 0.0000000000000000e+00 -2.9764871356162039e+04 -5.8259816268967261e+04 0.0000000000000000e+00 0.0000000000000000e+00 0.0000000000000000e+00 0.0000000000000000e+00  6.7935770387499442e+03 -4.5854058795082101e+03 0.0000000000000000e+00 -4.5854058795082101e+03 1.8985705125593307e+04 0.0000000000000000e+00 0.0000000000000000e+00 0.0000000000000000e+00 0.0000000000000000e+00  1.1077652910916602e+04 -1.0784631755016600e+04 0.0000000000000000e+00 -1.0784631755016600e+04 2.6609677924849151e+04 0.0000000000000000e+00 0.0000000000000000e+00 0.0000000000000000e+00 0.0000000000000000e+00  -1.5691654119788398e+05 2.5671665148576441e+04 0.0000000000000000e+00 2.5671665148576441e+04 -4.7153263356104537e+04 0.0000000000000000e+00 0.0000000000000000e+00 0.0000000000000000e+00 0.0000000000000000e+00  -1.3304313250349902e+05 6.0260068429814557e+04 0.0000000000000000e+00 6.0260068429814557e+04 -1.5270513389098828e+05 0.0000000000000000e+00 0.0000000000000000e+00 0.0000000000000000e+00 0.0000000000000000e+00  -4.4221360144666556e+04 2.5930730564078011e+04 0.0000000000000000e+00 2.5930730564078011e+04 -1.4221019360870239e+05 0.0000000000000000e+00 0.0000000000000000e+00 0.0000000000000000e+00 0.0000000000000000e+00  -1.6356278156397189e+04 5.0561900791020325e+03 0.0000000000000000e+00 5.0561900791020325e+03 -1.0551183492913502e+05 0.0000000000000000e+00 0.0000000000000000e+00 0.0000000000000000e+00 0.0000000000000000e+00  -1.6583598530124131e+04 -5.2500384435146307e+03 0.0000000000000000e+00 -5.2500384435146307e+03 -1.0688068143726380e+05 0.0000000000000000e+00 0.0000000000000000e+00 0.0000000000000000e+00 0.0000000000000000e+00  -4.2747643614939552e+04 -2.5890274505469395e+04 0.0000000000000000e+00 -2.5890274505469395e+04 -1.4347347236672216e+05 0.0000000000000000e+00 0.0000000000000000e+00 0.0000000000000000e+00 0.0000000000000000e+00  -1.3568014407394259e+05 -6.1410284866187270e+04 0.0000000000000000e+00 -6.1410284866187270e+04 -1.5581889265889482e+05 0.0000000000000000e+00 0.0000000000000000e+00 0.0000000000000000e+00 0.0000000000000000e+00  -1.3549896250636945e+05 -2.3509396114712086e+04 0.0000000000000000e+00 -2.3509396114712086e+04 -4.3778705832965003e+04 0.0000000000000000e+00 0.0000000000000000e+00 0.0000000000000000e+00 0.0000000000000000e+00  -7.5136787673159095e+04 1.3006927793315623e+02 0.0000000000000000e+00 1.3006927793315623e+02 -7.2342434437067874e+04 0.0000000000000000e+00 0.0000000000000000e+00 0.0000000000000000e+00 0.0000000000000000e+00  -3.0145436138402602e+04 4.0721727032766437e+04 0.0000000000000000e+00 4.0721727032766437e+04 -1.6698615683423178e+05 0.0000000000000000e+00 0.0000000000000000e+00 0.0000000000000000e+00 0.0000000000000000e+00  -1.2540220725989770e+04 2.4026987153821625e+04 0.0000000000000000e+00 2.4026987153821625e+04 -1.0295564928926236e+05 0.0000000000000000e+00 0.0000000000000000e+00 0.0000000000000000e+00 0.0000000000000000e+00  -7.1913521115557967e+02 1.2114697950865244e+04 0.0000000000000000e+00 1.2114697950865244e+04 -1.0019007619185135e+04 0.0000000000000000e+00 0.0000000000000000e+00 0.0000000000000000e+00 0.0000000000000000e+00  -1.9421579702691586e+03 1.0831924144771383e+04 0.0000000000000000e+00 1.0831924144771383e+04 6.1224317147745078e+03 0.0000000000000000e+00 0.0000000000000000e+00 0.0000000000000000e+00 0.0000000000000000e+00  1.1590483140571390e+04 1.0821194665261404e+04 0.0000000000000000e+00 1.0821194665261404e+04 2.5397162044264678e+04 0.0000000000000000e+00 0.0000000000000000e+00 0.0000000000000000e+00 0.0000000000000000e+00  1.8827776201397683e+03 4.7623734582488078e+03 0.0000000000000000e+00 4.7623734582488078e+03 2.0295202842148050e+04 0.0000000000000000e+00 0.0000000000000000e+00 0.0000000000000000e+00 0.0000000000000000e+00  -1.1366711220940655e+05 2.6422895597216870e+04 0.0000000000000000e+00 2.6422895597216870e+04 -3.1801856371945189e+04 0.0000000000000000e+00 0.0000000000000000e+00 0.0000000000000000e+00 0.0000000000000000e+00  -1.3894730161236995e+05 7.2343321509000176e+04 0.0000000000000000e+00 7.2343321509000190e+04 -2.0176809841827056e+05 0.0000000000000000e+00 0.0000000000000000e+00 0.0000000000000000e+00 0.0000000000000000e+00  1.1885337127480037e+02 8.6553421456746619e+01 0.0000000000000000e+00 8.6553421456746591e+01 -5.2311467743841956e+02 0.0000000000000000e+00 0.0000000000000000e+00 0.0000000000000000e+00 0.0000000000000000e+00  2.5111330875532434e+02 -2.8974975943933617e+02 0.0000000000000000e+00 -2.8974975943933617e+02 8.7688351598709846e+02 0.0000000000000000e+00 0.0000000000000000e+00 0.0000000000000000e+00 0.0000000000000000e+00  -9.8954328380351712e+04 1.6984905668501950e+04 0.0000000000000000e+00 1.6984905668501950e+04 -7.6611957725803280e+04 0.0000000000000000e+00 0.0000000000000000e+00 0.0000000000000000e+00 0.0000000000000000e+00  -9.6966866851232742e+04 -1.6331618709269207e+04 0.0000000000000000e+00 -1.6331618709269207e+04 -7.7033281873749002e+04 0.0000000000000000e+00 0.0000000000000000e+00 0.0000000000000000e+00 0.0000000000000000e+00  -2.5953543880904057e+04 8.8889371647616463e+03 0.0000000000000000e+00 8.8889371647616463e+03 -2.8590083407333801e+04 0.0000000000000000e+00 0.0000000000000000e+00 0.0000000000000000e+00 0.0000000000000000e+00  -8.0695381512350097e+04 2.6025081660225531e+01 0.0000000000000000e+00 2.6025081660225531e+01 -9.2101934941314626e+04 0.0000000000000000e+00 0.0000000000000000e+00 0.0000000000000000e+00 0.0000000000000000e+00  9.1033417495944421e+04 -9.9103866682700797e+01 0.0000000000000000e+00 -9.9103866682700797e+01 -5.4011252450700813e+03 0.0000000000000000e+00 0.0000000000000000e+00 0.0000000000000000e+00 0.0000000000000000e+00  -2.9174620928531032e+04 -8.6841441166161130e+03 0.0000000000000000e+00 -8.6841441166161130e+03 -2.8988673716686830e+04 0.0000000000000000e+00 0.0000000000000000e+00 0.0000000000000000e+00 0.0000000000000000e+00  -1.8447987102550591e+05 4.8857381730977460e+04 0.0000000000000000e+00 4.8857381730977460e+04 -1.0104174565449062e+05 0.0000000000000000e+00 0.0000000000000000e+00 0.0000000000000000e+00 0.0000000000000000e+00  -1.8984384941888184e+05 -4.8507108632956551e+04 0.0000000000000000e+00 -4.8507108632956551e+04 -1.0088853414195402e+05 0.0000000000000000e+00 0.0000000000000000e+00 0.0000000000000000e+00 0.0000000000000000e+00  -7.2959489455854718e+03 1.8239809326359311e+04 0.0000000000000000e+00 1.8239809326359311e+04 -4.1457549022998151e+04 0.0000000000000000e+00 0.0000000000000000e+00 0.0000000000000000e+00 0.0000000000000000e+00  -7.0346647535457058e+04 1.7050770993488080e+04 0.0000000000000000e+00 1.7050770993488077e+04 -7.9211674846146474e+04 0.0000000000000000e+00 0.0000000000000000e+00 0.0000000000000000e+00 0.0000000000000000e+00  -2.8729155937391729e+03 6.8687953973324811e+03 0.0000000000000000e+00 6.8687953973324811e+03 3.8442468556704584e+03 0.0000000000000000e+00 0.0000000000000000e+00 0.0000000000000000e+00 0.0000000000000000e+00  -5.3172974669337636e+03 -1.7524832771396250e+04 0.0000000000000000e+00 -1.7524832771396250e+04 -3.9473875109463261e+04 0.0000000000000000e+00 0.0000000000000000e+00 0.0000000000000000e+00 0.0000000000000000e+00  -4.9883775776931334e+03 -5.2605487627047796e+03 0.0000000000000000e+00 -5.2605487627047796e+03 2.5823903881303695e+03 0.0000000000000000e+00 0.0000000000000000e+00 0.0000000000000000e+00 0.0000000000000000e+00  -6.9064219537809127e+04 -1.8141262297328718e+04 0.0000000000000000e+00 -1.8141262297328718e+04 -8.9035158008461745e+04 0.0000000000000000e+00 0.0000000000000000e+00 0.0000000000000000e+00 0.0000000000000000e+00  -1.5064364625846659e+05 4.3176874127450523e+04 0.0000000000000000e+00 4.3176874127450523e+04 -1.0672208654667118e+05 0.0000000000000000e+00 0.0000000000000000e+00 0.0000000000000000e+00 0.0000000000000000e+00  2.8531642148182345e+02 4.0367679013712104e+03 0.0000000000000000e+00 4.0367679013712104e+03 1.9586965707311268e+04 0.0000000000000000e+00 0.0000000000000000e+00 0.0000000000000000e+00 0.0000000000000000e+00  -3.0664340304548136e+03 -4.8622130301604002e+03 0.0000000000000000e+00 -4.8622130301604002e+03 1.6316023983132965e+04 0.0000000000000000e+00 0.0000000000000000e+00 0.0000000000000000e+00 0.0000000000000000e+00  -1.6443064927963162e+05 -5.3001698931104336e+04 0.0000000000000000e+00 -5.3001698931104322e+04 -1.2893040099944294e+05 0.0000000000000000e+00 0.0000000000000000e+00 0.0000000000000000e+00 0.0000000000000000e+00  7.6973950950572453e+03 -9.7564549082605481e+02 0.0000000000000000e+00 -9.7564549082605481e+02 -3.8214016015448561e+02 0.0000000000000000e+00 0.0000000000000000e+00 0.0000000000000000e+00 0.0000000000000000e+00  1.1705791637373279e+03 2.1800485143745159e+03 0.0000000000000000e+00 2.1800485143745159e+03 8.1371499559808501e+02 0.0000000000000000e+00 0.0000000000000000e+00 0.0000000000000000e+00 0.0000000000000000e+00  4.2011938874772786e+04 -4.2600775825197297e+03 0.0000000000000000e+00 -4.2600775825197297e+03 -1.7309087988891683e+03 0.0000000000000000e+00 0.0000000000000000e+00 0.0000000000000000e+00 0.0000000000000000e+00  4.6477197715457667e+04 3.7297137677943224e+03 0.0000000000000000e+00 3.7297137677943224e+03 -2.2865842114971861e+03 0.0000000000000000e+00 0.0000000000000000e+00 0.0000000000000000e+00 0.0000000000000000e+00  -2.3941374336414927e+04 2.1555085406960272e+04 0.0000000000000000e+00 2.1555085406960272e+04 -1.1709130211527696e+04 0.0000000000000000e+00 0.0000000000000000e+00 0.0000000000000000e+00 0.0000000000000000e+00  -2.2153480644584648e+04 -2.1569927971675763e+04 0.0000000000000000e+00 -2.1569927971675763e+04 -1.3726198912999485e+04 0.0000000000000000e+00 0.0000000000000000e+00 0.0000000000000000e+00 0.0000000000000000e+00  -2.5951712336152195e+02 1.2412814280425064e+03 0.0000000000000000e+00 1.2412814280425061e+03 2.2789719388656551e+04 0.0000000000000000e+00 0.0000000000000000e+00 0.0000000000000000e+00 0.0000000000000000e+00  -1.2947974381694252e+02 -1.2238239776967887e+03 0.0000000000000000e+00 -1.2238239776967887e+03 2.3068328038732332e+04 0.0000000000000000e+00 0.0000000000000000e+00 0.0000000000000000e+00 0.0000000000000000e+00  -3.8381810627575201e+03 1.1839297577429850e+04 0.0000000000000000e+00 1.1839297577429850e+04 -2.2759397390303504e+04 0.0000000000000000e+00 0.0000000000000000e+00 0.0000000000000000e+00 0.0000000000000000e+00  -7.3405620277493344e+03 -1.2168213253804106e+04 0.0000000000000000e+00 -1.2168213253804104e+04 -2.1448187097716451e+04 0.0000000000000000e+00 0.0000000000000000e+00 0.0000000000000000e+00 0.0000000000000000e+00  -4.3939445221147525e+03 -5.0725669822738255e+03 0.0000000000000000e+00 -5.0725669822738255e+03 -2.5106383187807929e+04 0.0000000000000000e+00 0.0000000000000000e+00 0.0000000000000000e+00 0.0000000000000000e+00  -4.4571543195367922e+03 4.4490286976520438e+03 0.0000000000000000e+00 4.4490286976520438e+03 -2.2436369066357591e+04 0.0000000000000000e+00 0.0000000000000000e+00 0.0000000000000000e+00 0.0000000000000000e+00  -4.2562701958425489e+04 -3.6734195777831146e+03 0.0000000000000000e+00 -3.6734195777831146e+03 -1.8807130076100680e+02 0.0000000000000000e+00 0.0000000000000000e+00 0.0000000000000000e+00 0.0000000000000000e+00  1.3352807188306460e+04 5.9342324920647206e+02 0.0000000000000000e+00 5.9342324920647206e+02 -3.2699779797590651e+02 0.0000000000000000e+00 0.0000000000000000e+00 0.0000000000000000e+00 0.0000000000000000e+00  -4.3492412876826551e+04 3.6394241114723568e+03 0.0000000000000000e+00 3.6394241114723568e+03 -3.7395176630194391e+02 0.0000000000000000e+00 0.0000000000000000e+00 0.0000000000000000e+00 0.0000000000000000e+00  1.0955729277407530e+04 -1.3537104985965852e+03 0.0000000000000000e+00 -1.3537104985965852e+03 -6.1528120326593091e+02 0.0000000000000000e+00 0.0000000000000000e+00 0.0000000000000000e+00 0.0000000000000000e+00  -4.0449271633494376e+04 2.0481124154101206e+04 0.0000000000000000e+00 2.0481124154101206e+04 -1.3992091639995204e+04 0.0000000000000000e+00 0.0000000000000000e+00 0.0000000000000000e+00 0.0000000000000000e+00  -4.1536200052877699e+04 -2.0213213034584125e+04 0.0000000000000000e+00 -2.0213213034584125e+04 -2.0112476933416390e+04 0.0000000000000000e+00 0.0000000000000000e+00 0.0000000000000000e+00 0.0000000000000000e+00  -1.0296718475670416e+04 1.1442481018140791e+03 0.0000000000000000e+00 1.1442481018140788e+03 -7.4859607924179345e+03 0.0000000000000000e+00 0.0000000000000000e+00 0.0000000000000000e+00 0.0000000000000000e+00  1.2261996665525030e+03 3.4189543120613989e+03 0.0000000000000000e+00 3.4189543120613985e+03 -5.9618170511856806e+02 0.0000000000000000e+00 0.0000000000000000e+00 0.0000000000000000e+00 0.0000000000000000e+00  -8.5858104372674261e+03 -7.3428280958153448e+02 0.0000000000000000e+00 -7.3428280958153459e+02 -6.2139720581652091e+03 0.0000000000000000e+00 0.0000000000000000e+00 0.0000000000000000e+00 0.0000000000000000e+00  1.0980168760052268e+03 -2.8670333955566221e+03 0.0000000000000000e+00 -2.8670333955566216e+03 -1.6643614972424891e+03 0.0000000000000000e+00 0.0000000000000000e+00 0.0000000000000000e+00 0.0000000000000000e+00  -3.5427044042303896e+04 2.0801520273967174e+02 0.0000000000000000e+00 2.0801520273967171e+02 -3.7366147864476719e+04 0.0000000000000000e+00 0.0000000000000000e+00 0.0000000000000000e+00 0.0000000000000000e+00  -5.7751753309680844e+03 1.7498752482984550e+04 0.0000000000000000e+00 1.7498752482984550e+04 -7.3164338000926073e+03 0.0000000000000000e+00 0.0000000000000000e+00 0.0000000000000000e+00 0.0000000000000000e+00  -5.7009505376009593e+03 -1.7277659379202720e+04 0.0000000000000000e+00 -1.7277659379202720e+04 -7.4938897242227376e+03 0.0000000000000000e+00 0.0000000000000000e+00 0.0000000000000000e+00 0.0000000000000000e+00  3.5004199264934882e+03 -4.8675051919359084e+03 0.0000000000000000e+00 -4.8675051919359084e+03 -5.3493810953403147e+02 0.0000000000000000e+00 0.0000000000000000e+00 0.0000000000000000e+00 0.0000000000000000e+00  7.6081908407198178e+04 -9.6484943278404148e+02 0.0000000000000000e+00 -9.6484943278404148e+02 -1.3728796640611190e+03 0.0000000000000000e+00 0.0000000000000000e+00 0.0000000000000000e+00 0.0000000000000000e+00  -8.7959299669205939e+03 5.3319839812482660e+03 0.0000000000000000e+00 5.3319839812482660e+03 -3.5830589675524120e+03 0.0000000000000000e+00 0.0000000000000000e+00 0.0000000000000000e+00 0.0000000000000000e+00  7.9976661959337143e+04 1.0669417014634637e+03 0.0000000000000000e+00 1.0669417014634637e+03 -3.8861444086134734e+03 0.0000000000000000e+00 0.0000000000000000e+00 0.0000000000000000e+00 0.0000000000000000e+00  1.8028130923659319e+04 8.6728774576344006e+02 0.0000000000000000e+00 8.6728774576344006e+02 -1.3028306234352442e+04 0.0000000000000000e+00 0.0000000000000000e+00 0.0000000000000000e+00 0.0000000000000000e+00  -1.9813340964998741e+04 -1.2686574136926123e+04 0.0000000000000000e+00 -1.2686574136926123e+04 -6.4445227960371376e+03 0.0000000000000000e+00 0.0000000000000000e+00 0.0000000000000000e+00 0.0000000000000000e+00  -2.7655114758513184e+04 -2.3022785987967865e+04 0.0000000000000000e+00 -2.3022785987967865e+04 -2.4206662310540571e+04 0.0000000000000000e+00 0.0000000000000000e+00 0.0000000000000000e+00 0.0000000000000000e+00  -1.4583031663854295e+04 1.8537958225022023e+04 0.0000000000000000e+00 1.8537958225022023e+04 -3.6187204029386863e+04 0.0000000000000000e+00 0.0000000000000000e+00 0.0000000000000000e+00 0.0000000000000000e+00  -1.0403768478711914e+04 1.0251459886926197e+04 0.0000000000000000e+00 1.0251459886926197e+04 -9.8685542449745844e+03 0.0000000000000000e+00 0.0000000000000000e+00 0.0000000000000000e+00 0.0000000000000000e+00  -4.5042854167067613e+04 -1.3656386684463352e+04 0.0000000000000000e+00 -1.3656386684463352e+04 -4.4169511791683813e+04 0.0000000000000000e+00 0.0000000000000000e+00 0.0000000000000000e+00 0.0000000000000000e+00  2.3836967500683645e+03 1.7826118341610024e+03 0.0000000000000000e+00 1.7826118341610024e+03 -6.2565918912509142e+03 0.0000000000000000e+00 0.0000000000000000e+00 0.0000000000000000e+00 0.0000000000000000e+00  -4.3685171816603819e+04 1.0418313527223017e+04 0.0000000000000000e+00 1.0418313527223017e+04 -4.6479696870751497e+04 0.0000000000000000e+00 0.0000000000000000e+00 0.0000000000000000e+00 0.0000000000000000e+00  -1.7401818152710159e+04 4.4153529115102356e+03 0.0000000000000000e+00 4.4153529115102338e+03 -4.0512459993647841e+04 0.0000000000000000e+00 0.0000000000000000e+00 0.0000000000000000e+00 0.0000000000000000e+00  -6.2994769353397851e+03 -7.4959421540079884e+03 0.0000000000000000e+00 -7.4959421540079884e+03 -9.4984401843944943e+03 0.0000000000000000e+00 0.0000000000000000e+00 0.0000000000000000e+00 0.0000000000000000e+00  -1.3124140600705017e+04 -1.6248960953273545e+04 0.0000000000000000e+00 -1.6248960953273545e+04 -2.6119577474279216e+04 0.0000000000000000e+00 0.0000000000000000e+00 0.0000000000000000e+00 0.0000000000000000e+00  -1.6114756184182937e+04 -1.2535603946255264e+04 0.0000000000000000e+00 -1.2535603946255264e+04 -5.1169438986293353e+04 0.0000000000000000e+00 0.0000000000000000e+00 0.0000000000000000e+00 0.0000000000000000e+00  -3.5921241245195124e+04 1.7742202525358724e+04 0.0000000000000000e+00 1.7742202525358724e+04 -5.7010533382956801e+03 0.0000000000000000e+00 0.0000000000000000e+00 0.0000000000000000e+00 0.0000000000000000e+00  9.7077449294468821e+01 -9.7662264015602531e+01 0.0000000000000000e+00 -9.7662264015602446e+01 2.4462887391097138e+04 0.0000000000000000e+00 0.0000000000000000e+00 0.0000000000000000e+00 0.0000000000000000e+00  -2.2425847199376920e+04 1.9859557095660202e+04 0.0000000000000000e+00 1.9859557095660202e+04 -1.1388578798021123e+04 0.0000000000000000e+00 0.0000000000000000e+00 0.0000000000000000e+00 0.0000000000000000e+00  -1.1755956614854088e+03 -4.1229986533750895e+02 0.0000000000000000e+00 -4.1229986533750895e+02 2.4642889347722194e+04 0.0000000000000000e+00 0.0000000000000000e+00 0.0000000000000000e+00 0.0000000000000000e+00  3.1181758068154767e+02 1.5381688767640794e+03 0.0000000000000000e+00 1.5381688767640790e+03 5.8752099544770799e+03 0.0000000000000000e+00 0.0000000000000000e+00 0.0000000000000000e+00 0.0000000000000000e+00  7.2442600963728538e+01 -1.3237577709098191e+03 0.0000000000000000e+00 -1.3237577709098191e+03 6.8973636301488959e+03 0.0000000000000000e+00 0.0000000000000000e+00 0.0000000000000000e+00 0.0000000000000000e+00  2.4967683743824175e+04 8.9734089643340576e+03 0.0000000000000000e+00 8.9734089643340576e+03 -5.9907184501224347e+03 0.0000000000000000e+00 0.0000000000000000e+00 0.0000000000000000e+00 0.0000000000000000e+00  2.7429607728929641e+03 -2.1278386452927037e+02 0.0000000000000000e+00 -2.1278386452927037e+02 -5.8196860609742407e+03 0.0000000000000000e+00 0.0000000000000000e+00 0.0000000000000000e+00 0.0000000000000000e+00  2.4258559578869234e+04 -9.7929384433136347e+03 0.0000000000000000e+00 -9.7929384433136347e+03 -5.13761