<?xml version="1.0"?>
<VTKFile type="UnstructuredGrid"  version="0.1"  >
<UnstructuredGrid>
<Piece  NumberOfPoints="372" NumberOfCells="644">
<Points>
<DataArray  type="Float64"  NumberOfComponents="3"  format="ascii">0.1 0 0  0.1353553390593274 -0.01464466094067263 0  0.15 -0.05 0  0.15 -0.1 0  0.35 -0.1 0  0.35 -0.05 0  0.3646446609406726 -0.01464466094067262 0  0.4 0 0  0.8853553390593274 0.5146446609406726 0  0.85 0.5 0  1.15 0.5 0  1.114644660940673 0.5146446609406726 0  1.1 0.55 0  1.1 0.6 0  0.9 0.6 0  0.9 0.55 0  1.6 0 0  1.635355339059327 -0.01464466094067263 0  1.65 -0.05 0  1.65 -0.1 0  1.85 -0.1 0  1.85 -0.05 0  1.864644660940673 -0.01464466094067262 0  1.9 0 0  0 0.5 0  0 0 0  2 0 0  2 0.5 0  1 0.5 0  1 0 0  1.75 0 0  0.25 0 0  1 0.6 0  0.926536686473018 0.5 0  1.073463313526982 0.5 0  1.75 -0.1 0  1.823463313526982 0 0  1.676536686473018 0 0  0.176536686473018 0 0  0.323463313526982 0 0  0.8882683432365091 0.5 0  1.111731656763491 0.5 0  1.861731656763491 0 0  1.638268343236509 0 0  0.138268343236509 0 0  0.361731656763491 0 0  1.575 0.5 0  0.425 0.5 0  1.3 0 0  0.7 0 0  0.55 0.243125 0  1.3625 0.5 0  1.7875 0.5 0  2 0.25 0  0.2125 0.5 0  0 0.25 0  1.45 0.2351562500000001 0  1.15 0.2275 0  0.814142661900757 0.2382572014297729 0  1.713268343236509 0.2541611242572618 0  0.286731656763491 0.2541611242572618 0  0.6375 0.5 0  1.25625 0.36375 0  0.9802565507295946 0.1762182083101574 0  0.85 0 0  0.963268343236509 0.3397469594051027 0  0.1420232678912347 0.3445927222924505 0  1.857976732108765 0.3445927222924504 0  0.6839171015261212 0.3408486454655549 0  1.301709900142829 0.1643279561381291 0  1.45 0 0  1.15 0 0  0.55 0 0  1.842597485145236 0.1592646942832626 0  0.144604305213471 0.1667405213441943 0  1.46875 0.3882270925516225 0  0.4146007600921047 0.1588268125395756 0  0.53125 0.3928520377128954 0  0.6805070573017298 0.1558084993635351 0  1.68125 0.5 0  1.611626314419634 0.3587970113946699 0  0.31875 0.5 0  0.3892553399485741 0.3583011382809036 0  1.587911029250545 0.1577074194056631 0  1.102395983486086 0.3597518576280467 0  0.8343903911551274 0.3688109020951406 0  0.2668095536961531 0.1273054767285641 0  1.718062799231036 0.1251192118481992 0  0 0.125 0  0 0.375 0  2 0.375 0  2 0.125 0  0.2638891507610101 0.3830110433290314 0  1.736332685874272 0.3782504055140868 0  1.09174722734604 0.11375 0  0.5317423578086695 0.1215625 0  0.8662122253178564 0.1242667521957181 0  0.7437499999999999 0.5 0  1.415099204334789 0.117578125 0  1.338647941495704 0.2776407889789468 0  1.225 0.08295328010269039 0  1.044934141896312 0.2655840357581922 0  1.360670194630334 0.3918741601506566 0  1.46875 0.5 0  0.10625 0.5 0  0.53125 0.5 0  1.25625 0.5 0  1.89375 0.5 0  1.514188796360536 0.08302208062992271 0  0.764381560681757 0.0871782847094863 0  1.525778759672189 0.3035577218371151 0  0.625 0 0  0.4431830765826266 0.2638058829959287 0  0.25 -0.1 0  1.240660335970882 0.266354325160321 0  1.613135331127417 0.2546123123655805 0  1.813358977995536 0.2549931494680896 0  1.906104158580891 0.2309910584897394 0  0.7160619825354541 0.2477047636407877 0  0.925 0 0  0.9625 0.08501363826466637 0  0.8852526091230761 0.2940756474247963 0  0.4525140107451148 0.0752569709414295 0  0.09916529813975694 0.2550259274906409 0  0.1929155020677784 0.2474415259352375 0  1.036731656763491 0.4193139736065037 0  1.203125 0.431875 0  0.1191341716182545 0.08421771868519158 0  0.8962417457561944 0.2068715235395836 0  1.412435890904155 0.3226551697005143 0  1.812744090440489 0.4177639872738315 0  2 0.3125 0  0.159375 0.4304078957378359 0  0.7494528395049671 0.4070332630510013 0  0.7717200552244098 0.3116835467120756 0  1.880865828381745 0.08308053625690677 0  0.07365810962618054 0.4200468568177466 0  1.795249660263852 0.08777780029796906 0  0.3516916474731152 0.09155479034181555 0  1.18025284269447 0.325968985519588 0  0.6323274338087806 0.2709258373246736 0  0.6219855934554097 0.4091306240646214 0  1.639428664797117 0.08726396851051005 0  0.6625 0.07443205178578602 0  1.485672270449515 0.1605987493580833 0  1.375 0 0  1.334023824221336 0.08181884225663613 0  0.9119168970963484 0.4123128344559089 0  0.9626652395603791 0.2570375191746969 0  1.214814068490802 0.1693989100154473 0  1.374105283956196 0.2034053024600933 0  1.917667337647564 0.4126734870004296 0  0.06237675495358546 0.1802554380819812 0  1.763838584947058 0.1914300004417605 0  0.3324019458919943 0.181996651206603 0  0.4890553996976525 0.1901260344760563 0  0.7632000246794353 0.1713018536657513 0  1.059512678371377 0.1869451893453361 0  1.53857701521347 0.2222844259334116 0  0.569362093608741 0.3215872042601962 0  0.3363725918863069 0.4203783416586453 0  1.664587073927285 0.1877423845881905 0  1.665987056316035 0.4197594292283667 0  0.6121612307083084 0.1948448660533402 0  0.3635986755794288 0.2810233655302244 0  0.4686693374648059 0.3409864077489287 0  0.4539411332113522 0.4224448269471819 0  0.200975900620556 0.07832922670223591 0  0 0.3125 0  1.521875 0.4441135462758112 0  0.2162668599857411 0.3215794704189798 0  1.416534407813248 0.4441135462758113 0  1.309375 0.4468206275839642 0  1.923593198217523 0.1518983615684542 0  1.225 0 0  0.475 0 0  0.7749999999999999 0 0  1.525 0 0  1.075 0 0  1.034542404617546 0.06601440231488438 0  0 0.0625 0  1.593701228004961 0.4294991664772548 0  1.663440908321481 0.3074442188679626 0  1.923774414085621 0.3054725162263883 0  0.07228138842215298 0.3229271843579871 0  0.6906249999999999 0.5 0  1.786831499600475 0.3241118966815731 0  2 0.0625 0  0.3202006590878603 0.3383297225809998 0  0.2437545844041715 0.1959183165531021 0  1.540947765496889 0.3743111449309621 0  1.106209335162126 0.4299328079448052 0  1.112783732157442 0.2887974700967868 0  1.034749572820424 0.3364144417265655 0  0.2887783217416974 0.060823237606658 0  0.5861586322331098 0.0675830360658785 0  0.8973672327010591 0.0629665219425492 0  0.796875 0.5 0  1.152535091138951 0.07308923163702299 0  0.8124268369549432 0.4334886901113615 0  0.8294032395915556 0.06699191709900851 0  1.145951773090357 0.1577821664253368 0  1.734375 0.5 0  0.3872390552208133 0.2191484904352268 0  1.700216649434573 0.06159150686191597 0  0.61884183408656 0.1271924733628141 0  0.265625 0.5 0  0.584375 0.5 0  0.2042848518990046 0.1426161233053394 0  0.2247297063311217 0.4355908763403239 0  0.6856628931319081 0.4046588885630085 0  0.5030521214231167 0.2868344042137864 0  0.06351333175220442 0.1161367269918164 0  0.9232040328565323 0.1503091162016526 0  0.8273077242192703 0.1753832328088175 0  1.576465494606999 0.09527691522563406 0  0.9730228494753786 0.4390149647299337 0  2 0.1875 0  0 0.1875 0  0 0.4375 0  2 0.4375 0  1.72496736064629 0.3170280025280643 0  1.4125 0.05283772530685282 0  0.2120539235169397 -0.05089215296612071 0  0.286731656763491 -0.05000000000000001 0  1.786731656763491 -0.05000000000000001 0  1.71205392351694 -0.05089215296612081 0  0.963268343236509 0.5499999999999999 0  1.036731656763491 0.55 0  1.159946476756591 0.3857772992265817 0  1.026776472354667 0.1306613177787031 0  1.946875 0.5 0  0.5125000000000001 0.05219237822021986 0  0.5506122789343104 0.1808807205386344 0  0.1962248032750062 0.3803869468852152 0  1.357419486887876 0.1385638153674606 0  1.75312780640874 0.4394110011399055 0  0.06309766683452518 0.05220626693524028 0  1.866685804796728 0.2843469777001684 0  0.8934748791920796 0.3543465953989462 0  1.943706086385112 0.09173761979397514 0  0.4723905425720284 0.1321806643209403 0  0.5578125 0.4464260188564477 0  1.427701363653826 0.1763009563252264 0  1.294568354388783 0.2293329782562588 0  1.397366486972295 0.2643729603747165 0  1.285375692445333 0.3091424692282126 0  0.371875 0.5 0  1.95 0 0  0.3952351267759932 0.4169588978615399 0  0.6681001083097404 0.2134350659457945 0  1.337822227812954 0.3370394162568601 0  0.627043180215654 0.3288176676355178 0  1.866682031500742 0.4456479706402614 0  1.096412527576802 0.05495530192974003 0  1.47173415494396 0.3286966131608954 0  0.829741357677547 0.3109717748081037 0  0.281811029746165 0.43723071510628 0  1.628125 0.5 0  1.667676591501413 0.3635346626957098 0  1.279780070007437 0.108157062651906 0  1.2625 0.04147664005134519 0  1.093288668992312 0.2350146842272665 0  1.014776558027608 0.2193224926681506 0  0.7158814072826597 0.4508858252356244 0  0.148875383376485 0.286276736765647 0  0.478125 0.5 0  1.187341872713489 0.1223389259010118 0  0.4111206078244619 0.3081437774358042 0  0.053125 0.5 0  0.7374999999999999 0.03966825943308927 0  0.7102194904709515 0.1065531709179994 0  0.810160921399707 0.1198239207762339 0  1.771519697137402 0.1371721542766672 0  0.9918543683883102 0.3870512349419566 0  1.553824322349781 0.04596848920027192 0  1.414304078918384 0.3780183872688552 0  1.304857735946293 0.3911870314783804 0  1.258557060392048 0.4229466847475187 0  1.910777596300392 0.358506548083023 0  0.8691341716182546 0.4478071618567059 0  1.000267784893303 0.2953089582883232 0  1.36297820209117 0.4463972590429522 0  0.6568469348569831 0.4499377396114613 0  0.5047377780498882 0.4393690180317946 0  0.3364385067057792 0.2350850197261255 0  1.415625 0.5 0  0.159375 0.5 0  1.309375 0.5 0  1.521875 0.5 0  1.203125 0.5 0  1.840625 0.5 0  1.467937345686539 0.05245661229642179 0  0.4398500289050561 0.2106110166695337 0  0.1904269098954539 0.1941423531118995 0  0.1437586367689645 0.223029025736778 0  1.469204703906624 0.4409880806963635 0  0.2716259365528726 0.308906445039521 0  1.53611171602213 0.1351103110646566 0  1.466336971802008 0.1051547050641564 0  1.584707603930641 0.3063038415103279 0  0.7170763997031501 0.1955878717971495 0  1.66527070835977 0.1341823446458058 0  0.3979014170003797 0.0574149006536949 0  1.957454398789137 0.21875 0  0.1592281723324378 0.1170349605893605 0  1.16305297344683 0.2773715227122724 0  1.19374206174922 0.04147664005134519 0  0.4118581211268609 0.1071975551910213 0  0.04848189422631843 0.2742316778421076 0  0.5198223497518735 0.335473690397295 0  0.5814797511015446 0.3738911696135933 0  1.480704019575092 0.2773173071478024 0  0.1574
[...]
<PointData  Tensors="f_310"> 
<DataArray  type="Float64"  Name="f_310"  NumberOfComponents="9" format="ascii">6.6271225615806979e+03 -3.9021794412722870e+03 0.0000000000000000e+00 -3.9021794412722879e+03 7.1850987226499083e+03 0.0000000000000000e+00 0.0000000000000000e+00 0.0000000000000000e+00 0.0000000000000000e+00  1.6585367387100174e+04 -1.2214939222693436e+04 0.0000000000000000e+00 -1.2214939222693436e+04 1.2067413653656351e+04 0.0000000000000000e+00 0.0000000000000000e+00 0.0000000000000000e+00 0.0000000000000000e+00  -5.8195152732342522e+03 -1.3066915358371325e+04 0.0000000000000000e+00 -1.3066915358371325e+04 -2.6379501009826508e+04 0.0000000000000000e+00 0.0000000000000000e+00 0.0000000000000000e+00 0.0000000000000000e+00  -8.9040588970135777e+03 -1.7370548328969096e+04 0.0000000000000000e+00 -1.7370548328969096e+04 -5.1558094701470829e+04 0.0000000000000000e+00 0.0000000000000000e+00 0.0000000000000000e+00 0.0000000000000000e+00  -1.1342451071449086e+04 -1.8403585674283800e+04 0.0000000000000000e+00 -1.8403585674283800e+04 -7.2321421174323055e+04 0.0000000000000000e+00 0.0000000000000000e+00 0.0000000000000000e+00 0.0000000000000000e+00  -1.8900511781397036e+04 -2.5263132813540535e+04 0.0000000000000000e+00 -2.5263132813540535e+04 -9.0052739021178524e+04 0.0000000000000000e+00 0.0000000000000000e+00 0.0000000000000000e+00 0.0000000000000000e+00  -7.3811207951199467e+04 -4.5558128603912410e+04 0.0000000000000000e+00 -4.5558128603912410e+04 -1.3175477552588916e+05 0.0000000000000000e+00 0.0000000000000000e+00 0.0000000000000000e+00 0.0000000000000000e+00  -6.8815238442690170e+04 -1.6443191820849548e+04 0.0000000000000000e+00 -1.6443191820849544e+04 -2.5113898793588414e+04 0.0000000000000000e+00 0.0000000000000000e+00 0.0000000000000000e+00 0.0000000000000000e+00  -7.6399192654627070e+04 -4.1522693872092030e+04 0.0000000000000000e+00 -4.1522693872092030e+04 -1.2350925869735282e+05 0.0000000000000000e+00 0.0000000000000000e+00 0.0000000000000000e+00 0.0000000000000000e+00  -1.2033130412246542e+05 -1.7963270835921798e+04 0.0000000000000000e+00 -1.7963270835921794e+04 -2.5464006644618770e+04 0.0000000000000000e+00 0.0000000000000000e+00 0.0000000000000000e+00 0.0000000000000000e+00  -1.4042213323446579e+05 2.2888654804405356e+04 0.0000000000000000e+00 2.2888654804405360e+04 -2.3251474386666974e+04 0.0000000000000000e+00 0.0000000000000000e+00 0.0000000000000000e+00 0.0000000000000000e+00  -7.7656936805013363e+04 4.1604934884283321e+04 0.0000000000000000e+00 4.1604934884283313e+04 -1.2530532473534966e+05 0.0000000000000000e+00 0.0000000000000000e+00 0.0000000000000000e+00 0.0000000000000000e+00  -2.4770049983008001e+04 1.3293247925208898e+04 0.0000000000000000e+00 1.3293247925208903e+04 -1.1629155416656849e+05 0.0000000000000000e+00 0.0000000000000000e+00 0.0000000000000000e+00 0.0000000000000000e+00  -2.5582521358856025e+03 4.4830807337508322e+03 0.0000000000000000e+00 4.4830807337508286e+03 -1.1729350379819525e+05 0.0000000000000000e+00 0.0000000000000000e+00 0.0000000000000000e+00 0.0000000000000000e+00  -2.4253215092276801e+03 -4.5278234816236627e+03 0.0000000000000000e+00 -4.5278234816236627e+03 -1.1778238118398300e+05 0.0000000000000000e+00 0.0000000000000000e+00 0.0000000000000000e+00 0.0000000000000000e+00  -2.5141581065496503e+04 -1.3341183190686557e+04 0.0000000000000000e+00 -1.3341183190686557e+04 -1.1600941349984241e+05 0.0000000000000000e+00 0.0000000000000000e+00 0.0000000000000000e+00 0.0000000000000000e+00  -7.7518813026667267e+04 1.8977294393696910e+04 0.0000000000000000e+00 1.8977294393696910e+04 -2.0078846668762646e+04 0.0000000000000000e+00 0.0000000000000000e+00 0.0000000000000000e+00 0.0000000000000000e+00  -7.4503658529777153e+04 4.6258989387280075e+04 0.0000000000000000e+00 4.6258989387280075e+04 -1.3254325925098691e+05 0.0000000000000000e+00 0.0000000000000000e+00 0.0000000000000000e+00 0.0000000000000000e+00  -1.7928218756743619e+04 2.4732492689479659e+04 0.0000000000000000e+00 2.4732492689479659e+04 -8.9148770720825632e+04 0.0000000000000000e+00 0.0000000000000000e+00 0.0000000000000000e+00 0.0000000000000000e+00  -1.1753242415955907e+04 1.8478889309579365e+04 0.0000000000000000e+00 1.8478889309579365e+04 -6.9500110887649935e+04 0.0000000000000000e+00 0.0000000000000000e+00 0.0000000000000000e+00 0.0000000000000000e+00  -9.5404431369656631e+03 1.7622968351698641e+04 0.0000000000000000e+00 1.7622968351698641e+04 -5.3280522096781555e+04 0.0000000000000000e+00 0.0000000000000000e+00 0.0000000000000000e+00 0.0000000000000000e+00  -5.7922251627826581e+03 1.3364664735534727e+04 0.0000000000000000e+00 1.3364664735534727e+04 -2.8112324375439850e+04 0.0000000000000000e+00 0.0000000000000000e+00 0.0000000000000000e+00 0.0000000000000000e+00  1.7398528305679451e+04 1.1798125590160978e+04 0.0000000000000000e+00 1.1798125590160978e+04 1.0250021632527742e+04 0.0000000000000000e+00 0.0000000000000000e+00 0.0000000000000000e+00 0.0000000000000000e+00  1.2265230286478614e+04 4.5579695533873874e+03 0.0000000000000000e+00 4.5579695533873874e+03 9.8398801689224365e+03 0.0000000000000000e+00 0.0000000000000000e+00 0.0000000000000000e+00 0.0000000000000000e+00  6.7753946467384401e+02 2.5063819390307958e+02 0.0000000000000000e+00 2.5063819390307958e+02 8.2955404917091334e+02 0.0000000000000000e+00 0.0000000000000000e+00 0.0000000000000000e+00 0.0000000000000000e+00  8.0640712686761412e+02 -5.9567752812701076e+02 0.0000000000000000e+00 -5.9567752812701076e+02 2.9221768630069450e+03 0.0000000000000000e+00 0.0000000000000000e+00 0.0000000000000000e+00 0.0000000000000000e+00  1.0837236084780532e+03 8.1683482775327855e+02 0.0000000000000000e+00 8.1683482775327855e+02 3.2761544942497158e+03 0.0000000000000000e+00 0.0000000000000000e+00 0.0000000000000000e+00 0.0000000000000000e+00  8.0083210703239536e+02 -3.1094832997032677e+02 0.0000000000000000e+00 -3.1094832997032677e+02 1.0741174702330791e+03 0.0000000000000000e+00 0.0000000000000000e+00 0.0000000000000000e+00 0.0000000000000000e+00  -6.6463601907048229e+04 4.1523940229305663e+02 0.0000000000000000e+00 4.1523940229305657e+02 -6.5712647054102592e+04 0.0000000000000000e+00 0.0000000000000000e+00 0.0000000000000000e+00 0.0000000000000000e+00  7.4505548209033237e+04 9.9996592969279436e+02 0.0000000000000000e+00 9.9996592969279436e+02 -2.4031481900713825e+03 0.0000000000000000e+00 0.0000000000000000e+00 0.0000000000000000e+00 0.0000000000000000e+00  -1.9680807210401726e+04 9.4736311944534027e+03 0.0000000000000000e+00 9.4736311944534045e+03 -3.8441258420562226e+04 0.0000000000000000e+00 0.0000000000000000e+00 0.0000000000000000e+00 0.0000000000000000e+00  -2.1556671652073568e+04 -8.6691567175299951e+03 0.0000000000000000e+00 -8.6691567175299951e+03 -3.2766376625489484e+04 0.0000000000000000e+00 0.0000000000000000e+00 0.0000000000000000e+00 0.0000000000000000e+00  -4.1509396799761860e+04 -1.5912317693911554e+01 0.0000000000000000e+00 -1.5912317693911247e+01 -9.9966035606748861e+04 0.0000000000000000e+00 0.0000000000000000e+00 0.0000000000000000e+00 0.0000000000000000e+00  -7.3776890303137596e+04 -8.4829036005641356e+03 0.0000000000000000e+00 -8.4829036005641356e+03 -7.1424464566348630e+04 0.0000000000000000e+00 0.0000000000000000e+00 0.0000000000000000e+00 0.0000000000000000e+00  -7.0822815162635685e+04 7.7495846724943976e+03 0.0000000000000000e+00 7.7495846724943985e+03 -8.1588429319473304e+04 0.0000000000000000e+00 0.0000000000000000e+00 0.0000000000000000e+00 0.0000000000000000e+00  -1.1496197918658101e+04 2.0822885016061580e+04 0.0000000000000000e+00 2.0822885016061580e+04 -4.8769321758214777e+04 0.0000000000000000e+00 0.0000000000000000e+00 0.0000000000000000e+00 0.0000000000000000e+00  -2.6540901079260975e+03 5.5684590386040727e+03 0.0000000000000000e+00 5.5684590386040718e+03 -2.2235326517798541e+04 0.0000000000000000e+00 0.0000000000000000e+00 0.0000000000000000e+00 0.0000000000000000e+00  -4.5391900685666384e+04 1.1983933142355449e+04 0.0000000000000000e+00 1.1983933142355449e+04 -5.6999510424675609e+04 0.0000000000000000e+00 0.0000000000000000e+00 0.0000000000000000e+00 0.0000000000000000e+00  -4.0537585702105179e+02 -4.0550866648036344e+03 0.0000000000000000e+00 -4.0550866648036344e+03 -1.6812674223616817e+04 0.0000000000000000e+00 0.0000000000000000e+00 0.0000000000000000e+00 0.0000000000000000e+00  -4.2481698995819628e+04 -1.1088461192526391e+04 0.0000000000000000e+00 -1.1088461192526391e+04 -5.2681018045394616e+04 0.0000000000000000e+00 0.0000000000000000e+00 0.0000000000000000e+00 0.0000000000000000e+00  -1.1487605119817007e+05 -2.3403902267270889e+04 0.0000000000000000e+00 -2.3403902267270892e+04 -6.8394261643852326e+04 0.0000000000000000e+00 0.0000000000000000e+00 0.0000000000000000e+00 0.0000000000000000e+00  -9.6451794348315278e+04 1.9274650021242989e+04 0.0000000000000000e+00 1.9274650021242986e+04 -5.2217023225424200e+04 0.0000000000000000e+00 0.0000000000000000e+00 0.0000000000000000e+00 0.0000000000000000e+00  1.9133801041950839e+04 7.2685427869428158e+03 0.0000000000000000e+00 7.2685427869428158e+03 1.2701706407179941e+04 0.0000000000000000e+00 0.0000000000000000e+00 0.0000000000000000e+00 0.0000000000000000e+00  -8.6024447394221483e+04 2.4765651432687908e+04 0.0000000000000000e+00 2.4765651432687908e+04 -6.1872224517994124e+04 0.0000000000000000e+00 0.0000000000000000e+00 0.0000000000000000e+00 0.0000000000000000e+00  2.2205707596911674e+04 -5.7604670424608112e+03 0.0000000000000000e+00 -5.7604670424608094e+03 9.0056297647126357e+03 0.0000000000000000e+00 0.0000000000000000e+00 0.0000000000000000e+00 0.0000000000000000e+00  -1.0903413081786137e+05 -3.5596063222749908e+04 0.0000000000000000e+00 -3.5596063222749908e+04 -9.3961508619790649e+04 0.0000000000000000e+00 0.0000000000000000e+00 0.0000000000000000e+00 0.0000000000000000e+00  -2.9372451118806111e+03 1.3805453386961524e+03 0.0000000000000000e+00 1.3805453386961524e+03 2.8553772018733093e+02 0.0000000000000000e+00 0.0000000000000000e+00 0.0000000000000000e+00 0.0000000000000000e+00  -2.3068486231385446e+03 -1.6252640896435232e+03 0.0000000000000000e+00 -1.6252640896435232e+03 -5.1235162925297652e+02 0.0000000000000000e+00 0.0000000000000000e+00 0.0000000000000000e+00 0.0000000000000000e+00  3.9460368822143762e+04 2.5980862370018426e+03 0.0000000000000000e+00 2.5980862370018426e+03 -2.4670935044813350e+03 0.0000000000000000e+00 0.0000000000000000e+00 0.0000000000000000e+00 0.0000000000000000e+00  4.1866820646918030e+04 -1.9837017281476901e+03 0.0000000000000000e+00 -1.9837017281476901e+03 -1.9722942096046904e+03 0.0000000000000000e+00 0.0000000000000000e+00 0.0000000000000000e+00 0.0000000000000000e+00  -1.4253788107530265e+04 -1.4165148279497278e+04 0.0000000000000000e+00 -1.4165148279497278e+04 -6.0652676075338777e+03 0.0000000000000000e+00 0.0000000000000000e+00 0.0000000000000000e+00 0.0000000000000000e+00  -3.8874294550744380e+04 2.3421703580159274e+03 0.0000000000000000e+00 2.3421703580159274e+03 1.8181654789634928e+02 0.0000000000000000e+00 0.0000000000000000e+00 0.0000000000000000e+00 0.0000000000000000e+00  7.4274667160545305e+03 -6.0933517931331357e+02 0.0000000000000000e+00 -6.0933517931331357e+02 -8.3489734013995474e+02 0.0000000000000000e+00 0.0000000000000000e+00 0.0000000000000000e+00 0.0000000000000000e+00  -1.1046905154514045e+03 -3.6442575056226724e+02 0.0000000000000000e+00 -3.6442575056226724e+02 1.1875575195785983e+04 0.0000000000000000e+00 0.0000000000000000e+00 0.0000000000000000e+00 0.0000000000000000e+00  7.4439617167419410e+03 3.5194950861742359e+02 0.0000000000000000e+00 3.5194950861742359e+02 -1.4966608532762683e+02 0.0000000000000000e+00 0.0000000000000000e+00 0.0000000000000000e+00 0.0000000000000000e+00  -5.9450335839341574e+02 5.5835535561086874e+02 0.0000000000000000e+00 5.5835535561086874e+02 1.1475772388403473e+04 0.0000000000000000e+00 0.0000000000000000e+00 0.0000000000000000e+00 0.0000000000000000e+00  -1.1888135547077904e+04 1.4273247379470238e+04 0.0000000000000000e+00 1.4273247379470238e+04 -6.8475332829625395e+03 0.0000000000000000e+00 0.0000000000000000e+00 0.0000000000000000e+00 0.0000000000000000e+00  -8.2542960401227174e+03 1.0695752882991041e+04 0.0000000000000000e+00 1.0695752882991041e+04 -1.6221455993623078e+04 0.0000000000000000e+00 0.0000000000000000e+00 0.0000000000000000e+00 0.0000000000000000e+00  -1.0528959669251655e+04 -1.1623241237869655e+04 0.0000000000000000e+00 -1.1623241237869655e+04 -1.5399450442726911e+04 0.0000000000000000e+00 0.0000000000000000e+00 0.0000000000000000e+00 0.0000000000000000e+00  -2.5700513597834993e+03 2.9318472610599524e+03 0.0000000000000000e+00 2.9318472610599524e+03 -1.3984677844650019e+04 0.0000000000000000e+00 0.0000000000000000e+00 0.0000000000000000e+00 0.0000000000000000e+00  -1.4982909757974053e+03 -3.2086280715274102e+03 0.0000000000000000e+00 -3.2086280715274102e+03 -1.3980346360407004e+04 0.0000000000000000e+00 0.0000000000000000e+00 0.0000000000000000e+00 0.0000000000000000e+00  -3.8451956069453292e+04 -2.2273011444815997e+03 0.0000000000000000e+00 -2.2273011444815997e+03 -2.1849401311410932e+02 0.0000000000000000e+00 0.0000000000000000e+00 0.0000000000000000e+00 0.0000000000000000e+00  -4.0850034600605861e+04 1.3102088959281669e+04 0.0000000000000000e+00 1.3102088959281669e+04 -7.2023913449163174e+03 0.0000000000000000e+00 0.0000000000000000e+00 0.0000000000000000e+00 0.0000000000000000e+00  8.5808615010610192e+03 -1.2431785358837913e+03 0.0000000000000000e+00 -1.2431785358837913e+03 -1.3654790950967978e+04 0.0000000000000000e+00 0.0000000000000000e+00 0.0000000000000000e+00 0.0000000000000000e+00  6.7305168007603643e+04 -2.4971492322717631e+03 0.0000000000000000e+00 -2.4971492322717631e+03 -1.8208223329364707e+03 0.0000000000000000e+00 0.0000000000000000e+00 0.0000000000000000e+00 0.0000000000000000e+00  -3.0336597154616451e+04 -2.7770200501965855e+03 0.0000000000000000e+00 -2.7770200501965855e+03 -3.8004696096563399e+04 0.0000000000000000e+00 0.0000000000000000e+00 0.0000000000000000e+00 0.0000000000000000e+00  -2.9353044537765737e+02 1.4040381879425852e+03 0.0000000000000000e+00 1.4040381879425852e+03 -1.1392736476284476e+03 0.0000000000000000e+00 0.0000000000000000e+00 0.0000000000000000e+00 0.0000000000000000e+00  -2.9874437317930114e+02 -1.2142774844134262e+03 0.0000000000000000e+00 -1.2142774844134262e+03 -1.4820104538686089e+03 0.0000000000000000e+00 0.0000000000000000e+00 0.0000000000000000e+00 0.0000000000000000e+00  -3.1970260407559279e+04 -1.2505407538871326e+04 0.0000000000000000e+00 -1.2505407538871326e+04 -4.7095768808922130e+03 0.0000000000000000e+00 0.0000000000000000e+00 0.0000000000000000e+00 0.0000000000000000e+00  -1.7822499035880571e+03 1.2191258636195675e+04 0.0000000000000000e+00 1.2191258636195675e+04 -3.7197079554169563e+03 0.0000000000000000e+00 0.0000000000000000e+00 0.0000000000000000e+00 0.0000000000000000e+00  -4.7291255547882162e+02 3.9933371842202182e+03 0.0000000000000000e+00 3.9933371842202182e+03 -1.2400998282626467e+03 0.0000000000000000e+00 0.0000000000000000e+00 0.0000000000000000e+00 0.0000000000000000e+00  6.4551577614693480e+04 2.3189854589411043e+03 0.0000000000000000e+00 2.3189854589411043e+03 -1.7020595956927145e+03 0.0000000000000000e+00 0.0000000000000000e+00 0.0000000000000000e+00 0.0000000000000000e+00  -5.5936677711758921e+03 -3.6981955477415900e+03 0.0000000000000000e+00 -3.6981955477415913e+03 -5.7290873860386171e+02 0.0000000000000000e+00 0.0000000000000000e+00 0.0000000000000000e+00 0.0000000000000000e+00  -5.5002256460225062e+03 -1.6915234607614266e+02 0.0000000000000000e+00 -1.6915234607614272e+02 -5.2819019252016406e+03 0.0000000000000000e+00 0.0000000000000000e+00 0.0000000000000000e+00 0.0000000000000000e+00  -4.2766410214492280e+03 1.1217660052024437e+03 0.0000000000000000e+00 1.1217660052024437e+03 -5.2978486762304092e+03 0.0000000000000000e+00 0.0000000000000000e+00 0.0000000000000000e+00 0.0000000000000000e+00  -2.0185311677947786e+04 8.6867052475157107e+03 0.0000000000000000e+00 8.6867052475157107e+03 -1.8819418746203444e+03 0.0000000000000000e+00 0.0000000000000000e+00 0.0000000000000000e+00 0.0000000000000000e+00  -7.2124139115252538e+03 -1.3157032084994920e+04 0.0000000000000000e+00 -1.3157032084994920e+04 -2.7297910365256124e+04 0.0000000000000000e+00 0.0000000000000000e+00 0.0000000000000000e+00 0.0000000000000000e+00  -1.7639312860439815e+04 -8.4911465566377246e+03 0.0000000000000000e+00 -8.4911465566377246e+03 -3.1390412769962413e+03 0.0000000000000000e+00 0.0000000000000000e+00 0.0000000000000000e+00 0.0000000000000000e+00  -1.0437643151057255e+03 -1.1609600392884102e+04 0.0000000000000000e+00 -1.1609600392884102e+04 -2.2212462390144410e+03 0.0000000000000000e+00 0.0000000000000000e+00 0.0000000000000000e+00 0.0000000000000000e+00  6.7385446590235342e+03 1.8931438328895587e+02 0.0000000000000000e+00 1.8931438328895587e+02 -3.7609819409832795e+02 0.0000000000000000e+00 0.0000000000000000e+00 0.0000000000000000e+00 0.0000000000000000e+00  -6.5961682056676627e+03 6.0148247468437621e+03 0.0000000000000000e+00 6.0148247468437621e+03 -6.4579640870446910e+03 0.0000000000000000e+00 0.0000000000000000e+00 0.0000000000000000e+00 0.0000000000000000e+00  8.1486735819936721e+03 -4.1713463999475954e+02 0.0000000000000000e+00 -4.1713463999475954e+02 -9.7509418127880406e+02 0.0000000000000000e+00 0.0000000000000000e+00 0.0000000000000000e+00 0.0000000000000000e+00  -6.8836296804672402e+03 -6.3025276914508031e+03 0.0000000000000000e+00 -6.3025276914508031e+03 -6.3406519610963778e+03 0.0000000000000000e+00 0.0000000000000000e+00 0.0000000000000000e+00 0.0000000000000000e+00  -8.1598432164833257e+03 1.2569452903508292e+04 0.0000000000000000e+00 1.2569452903508292e+04 -2.6848428250600187e+04 0.0000000000000000e+00 0.0000000000000000e+00 0.0000000000000000e+00 0.0000000000000000e+00  -3.7127554132362478e+04 8.9638673524895894e+03 0.0000000000000000e+00 8.9638673524895876e+03 -3.5403215486571877e+04 0.0000000000000000e+00 0.0000000000000000e+00 0.0000000000000000e+00 0.0000000000000000e+00  -4.5776585575005760e+04 -1.3757641824668191e+04 0.0000000000000000e+00 -1.3757641824668191e+04 -2.8359193874491837e+04 0.0000000000000000e+00 0.0000000000000000e+00 0.0000000000000000e+00 0.0000000000000000e+00  -5.2852143123119949e+03 -1.8537820905520016e+03 0.0000000000000000e+00 -1.8537820905520016e+03 -2.7057366309687972e+04 0.0000000000000000e+00 0.0000000000000000e+00 0.0000000000000000e+00 0.0000000000000000e+00  -8.1395923744469974e+03 2.7176305517842648e+03 0.0000000000000000e+00 2.7176305517842643e+03 -3.0174787576434788e+04 0.0000000000000000e+00 0.0000000000000000e+00 0.0000000000000000e+00 0.0000000000000000e+00  -4.8048573910354190e+02 -9.4836653720612696e+02 0.0000000000000000e+00 -9.4836653720612685e+02 1.1138087163165450e+04 0.0000000000000000e+00 0.0000000000000000e+00 0.0000000000000000e+00 0.0000000000000000e+00  -3.7477060829889245e+02 4.4268445391629234e+02 0.0000000000000000e+00 4.4268445391629234e+02 5.0875903392947284e+03 0.0000000000000000e+00 0.0000000000000000e+00 0.0000000000000000e+00 0.0000000000000000e+00  7.1776688034461074e+01 -7.0769309147361230e+02 0.0000000000000000e+00 -7.0769309147361230e+02 4.3889906726595127e+03 0.0000000000000000e+00 0.0000000000000000e+00 0.0000000000000000e+00 0.0000000000000000e+00  -1.6179082441683022e+03 1.0984270620377317e+03 0.0000000000000000e+00 1.0984270620377317e+03 1.0195673590331966e+04 0.0000000000000000e+00 0.0000000000000000e+00 0.0000000000000000e+00 0.0000000000000000e+00  -7.2086238213639899e+02 -1.2423535728668553e+03 0.0000000000000000e+00 -1.2423535728668553e+03 -4.5711044129428965e+03 0.0000000000000000e+00 0.0000000000000000e+00 0.0000000000000000e+00 0.0000000000000000e+00  -1.3930190974243458e+03 1.4355633310840469e+03 0.0000000000000000e+00 1.4355633310840471e+03 -4.6312954566159779e+03 0.0000000000000000e+00 0.0000000000000000e+00 0.0000000000000000e+00 0.0000000000000000e+00  2.8385251945547665e+04 4.4061344884273085e+03 0.0000000000000000e+00 4.4061344884273085e+03 -6.