<?xml version="1.0"?>
<VTKFile type="UnstructuredGrid"  version="0.1"  >
<UnstructuredGrid>
<Piece  NumberOfPoints="385" NumberOfCells="672">
<Points>
<DataArray  type="Float64"  NumberOfComponents="3"  format="ascii">0.04999999999999999 -0.05 0  0.04999999999999999 -0.1 0  0.35 -0.1 0  0.35 -0.05 0  0.3646446609406727 -0.01464466094067262 0  0.4 0 0  0 0 0  0.03535533905932739 -0.01464466094067263 0  1.2 0.5 0  1.164644660940673 0.5146446609406726 0  1.15 0.5499999999999999 0  1.15 0.6 0  0.85 0.6 0  0.85 0.55 0  0.8353553390593274 0.5146446609406726 0  0.8 0.5 0  1 0.5 0  1.65 -0.05 0  1.65 -0.1 0  1.95 -0.1 0  1.95 -0.05 0  1.964644660940673 -0.01464466094067262 0  2 0 0  1.6 0 0  1.635355339059327 -0.01464466094067263 0  0 0.5 0  2 0.5 0  1.123463313526982 0.5 0  0.8765366864730179 0.5 0  1.8 0 0  1 0.6 0  1 0 0  0.2 0 0  1.161731656763491 0.5 0  0.838268343236509 0.5 0  1.8 -0.1 0  1.676536686473018 0 0  1.923463313526982 0 0  0.2 -0.1 0  0.07653668647301798 0 0  0.3234633135269821 0 0  1.638268343236509 0 0  1.961731656763491 0 0  0.03826834323650899 0 0  0.3617316567634911 0 0  0.4 0.5 0  1.6 0.5 0  0.7 0 0  1.3 0 0  1.45 0.25 0  0.55 0.25 0  0 0.25 0  2 0.25 0  1.142597485145237 0.2300320737537709 0  0.85 0.2276376317704163 0  0.285990040996415 0.261594024597849 0  1.714009959003585 0.261594024597849 0  0.6000000000000001 0.5 0  0.2 0.5 0  1.4 0.5 0  1.8 0.5 0  1.289816039914905 0.3398160399149053 0  0.7077126700397157 0.3422873299602843 0  0.1467803473435396 0.1624242778748317 0  0.1394417084397257 0.3434466332482194 0  1.861731656763491 0.1556146745892071 0  1.860558291560275 0.3434466332482196 0  0.9955119050154341 0.3249853095492683 0  1.300881110517708 0.1694713336893754 0  0.6946299886511431 0.1667779931906858 0  0.55 0 0  0.85 0 0  1.45 0 0  1.15 0 0  0.996852508278381 0.1611654525460006 0  0.5 0.39 0  0.475 0.125 0  1.586138014467139 0.1616828086802834 0  1.578171178673595 0.3430972927958431 0  0.8574025148547635 0.3643903326100874 0  1.704519823039579 0.3997277490318272 0  1.125187483218582 0.3644601645365413 0  1.728622491602021 0.1260197529734516 0  0.3668356180384226 0.369396016398566 0  0.4174989389936684 0.244500636603799 0  0.3364451020116006 0.1353406679757719 0  1.413529753698618 0.3727059507397236 0  0 0.125 0  1.465624539010579 0.125 0  2 0.125 0  0 0.375 0  2 0.375 0  1.189854954492392 0.1164176914396247 0  0.2491948326781633 0.390981030726397 0  0.8049791111024175 0.1138188158852082 0  1.5 0.5 0  0.5851967776750773 0.1438819333949536 0  1.081675384050745 0.08842146301764935 0  0.9125026391665824 0.0905362258155708 0  0.5993569606780055 0.346556057385002 0  0.1 0.5 0  1.9 0.5 0  1.375 0 0  0.5 0.5 0  0.3 0.5 0  0.7000000000000001 0.5 0  1.3 0.5 0  1.7 0.5 0  0.9461804770252713 0.4138152616497669 0  0.2617316567634911 0.07421419652591436 0  0.244909325711767 0.171968355077634 0  1.817034704476407 0.2492551020055941 0  1.040980949125798 0.4083493977770402 0  1.3375 0.08454298843807478 0  0.625 0 0  1.36860276920115 0.2925801480623346 0  1.215148757403553 0.4032218354483463 0  1.200577530603704 0.3058826085866273 0  1.525 0 0  0.6500000000000001 0.4230671457124818 0  1.90857502414121 0.2354619110679516 0  0.7905170807333906 0.2994341837927901 0  0.75 0.4234002424784839 0  0.6501961898359074 0.2596753276390638 0  1.54727288879929 0.2508582169411898 0  0.1002301951700289 0.2511970683518928 0  0.1934810241867359 0.2497686588574864 0  0.6625 0.08226800388484215 0  0.08655792543028694 0.09206739689822573 0  1.504168046771446 0.4041522259832797 0  1.077043436481846 0.2898835059872709 0  0.9452696763165686 0.2426587434950551 0  1.5625 0.07822054972062803 0  1.649892654159507 0.08706667137890201 0  0.1765842685594888 0.0822587104395356 0  1.292181666908784 0.2544379741340347 0  1.385511538767743 0.155603041017382 0  1.35 0.4303195841236363 0  1.220175669253378 0.19566495049145 0  0.15 0.4293517775409398 0  1.769264245685337 0.3347829941122768 0  1.807893615632279 0.4130641003482012 0  1.919379802473649 0.08843176474666048 0  1.807089343776275 0.08723936413000266 0  0.4813766720827983 0.3044202400295708 0  1.632024956633282 0.2347385716612421 0  0.7644463338215598 0.2172959020640437 0  2 0.3125 0  1.496993526469801 0.3200800486313914 0  1.888836387303878 0.4195674241496744 0  1.001398662983086 0.08064077613468983 0  1.080475204134134 0.1728477016834934 0  0.06510950302328256 0.1761894446609235 0  1.225 0 0  0 0.4375 0  0.07773334742652091 0.3946323983359701 0  0 0.3125 0  0.925 0.6 0  0.9382683432365089 0.5 0  0.2617316567634911 0 0  0.275 -0.1 0  1.861731656763491 0 0  1.875 -0.1 0  1.738268343236509 0 0  1.725 -0.1 0  0.138268343236509 0 0  0.125 -0.1 0  1.075 0.6 0  1.061731656763491 0.5 0  1.620855120864411 0.4171287645507745 0  1.661094029765151 0.3273514269077803 0  0.9077244969835864 0.1711556850768535 0  0.7403737668750456 0.06808422746287666 0  0.570660718425134 0.4262175287044237 0  0.2320037204566325 0.316166772323643 0  1.787033004289842 0.177446820662441 0  1.022543090860011 0.2344986735531039 0  1.264294260912583 0.1033373093822256 0  0.9181819231970473 0.315684036383676 0  1.513751357476381 0.1831916442732244 0  0.925 0 0  0.475 0 0  0.7749999999999999 0 0  1.075 0 0  0.4022506052977472 0.08364963682135169 0  0.4266046813836183 0.4237315285305621 0  0.5396355263395196 0.07878131580371178 0  1.661888004919122 0.1618610855839999 0  0.35 0.4431838212049133 0  0.5219816546787068 0.1818110071927759 0  0.3033695309998214 0.332776229634401 0  0.3555497650481295 0.2823234184648686 0  0.3393236876519485 0.2096994896775729 0  2 0.1875 0  1.933780503012274 0.34375 0  0.0720119612487275 0.3176498712347302 0  1.931622366812704 0.1682766646310598 0  1.45 0.4498111814609514 0  1.413147152962427 0.06808297484668813 0  1.142597485145237 0.4324625170953281 0  0.4078363436426746 0.1584931003562632 0  1.75 0.5 0  1.49513622964246 0.06241638041593596 0  1.35633353230923 0.221533422951547 0  1.279422645790806 0.432455226771864 0  0.7253372840215077 0.2749157186055529 0  2 0.4375 0  0.8228037425728282 0.4286632604012565 0  0.3294042256695264 0.06772308791171579 0  1.55 0.5 0  0.6045067262078456 0.2091825631224692 0  0.4841666140142382 0.2371996838617051 0  0.4344214904129176 0.3550922976924773 0  2 0.0625 0  0 0.0625 0  0.7700722425432284 0.3613563235338065 0  0.8561663517359499 0.293285267389463 0  1.349191517525037 0.3655945763115646 0  1.433491673285216 0.3118662079470123 0  1.711622951239796 0.06133953301993504 0  1.721562536298485 0.1929230668355466 0  1.442885032754246 0.1856341504565053 0  0.5445920763840164 0.3136574206971657 0  0.4791508326757359 0.0625 0  0 0.1875 0  1.13951065066643 0.292476847106251 0  0.8843869209295526 0.4203652133214066 0  1.064523652680738 0.3507942086535084 0  1.145459766576558 0.1645871555100727 0  1.1875 0.05219298948689095 0  0.6016408969550827 0.06032847962045967 0  0.8509479663263209 0.06618835270236439 0  0.8443033869335375 0.1640775340563604 0  0.7449314482125747 0.1301444988388622 0  1.611437987467108 0.2920688427445818 0  0.25 0.5 0  0.288158881264942 0.439170583159855 0  1.85 0.5 0  1.948012934298784 0.40625 0  0.1883304151550907 0.381039311491128 0  0.2108644175230726 0.4392934967762088 0  1.948162344535538 0.28125 0  0.5970833092729163 0.2860583155714317 0  1.868848033795945 0.2824647929749151 0  1.95 0.5 0  0.05 0.5 0  1.030865828381746 0.55 0  0.9625 0.5540953840524817 0  0.2308658283817455 -0.05000000000000001 0  0.1625 -0.05409538405248179 0  1.8375 -0.05409538405248181 0  1.7625 -0.05409538405248181 0  1.563604039941789 0.4008169581191851 0  1.083851875249522 0.2315149296371726 0  1.525217446107564 0.1247115056210421 0  1.65 0.5 0  1.670546248771363 0.4462135355491759 0  0.2229011635247071 0.117856470359846 0  0.4617686282210948 0.182555285285046 0  1.817996250971953 0.3066064744376768 0  0.7083577274699521 0.2213085566007509 0  1.863510548528431 0.06184647636530248 0  1.232039451256177 0.2546257173428674 0  0.4256233498217159 0.2998480136501412 0  1.139991024937337 0.08609054734000993 0  0.6381565965613784 0.1637266394258494 0  1.04381908229492 0.1301049584104911 0  0.7886580358818307 0.1671027688431766 0  0.9057886815224064 0.5475669777163904 0  1.706964450927479 -0.04699716090325601 0  1.894211318477594 -0.04756697771639051 0  0.2942113184775936 -0.04756697771639042 0  0.1057886815224064 -0.04756697771639045 0  1.092597485145236 0.5467848606087272 0  1.769134171618254 0.04641598701701004 0  0.9529884659718879 0.04999411035765091 0  1.764648103935829 0.2289708321231474 0  0.7955160146357139 0.05868800520693245 0  1.242812582603986 0.05236624593280521 0  1.752049439514398 0.4386201644258909 0  0.9485857177361723 0.1331261171199641 0  0.5164215593051467 0.445 0  1.0375 0.03968210387338315 0  0.05478137756630722 0.4449248979469542 0  0.5524716273993022 0.3746659987047405 0  0.6525477456979226 0.3193663030002285 0  1.714244090919379 0.3446772892595953 0  0.1778795279837062 0.3031943559787912 0  1.109020068941062 0.04189436348558748 0  0.3135089235834518 0.388510276755836 0  1.536418417024497 0.4476126447780269 0  1.771081973848059 0.2816969217742885 0  0.45 0.5 0  0.1074025148547635 0.04321944242105765 0  1.0856167410074 0.4464177576733382 0  1.755548976891541 0.3858547638382469 0  0.5344314962249038 0.1309169370405511 0  1.25 0.5 0  0.05210721438477812 0.05143917949026266 0  1.834145294250147 0.1999347122130351 0  0.6632261900632107 0.371510371582032 0  1.955641516601844 0.214061958434503 0  1.26224103908136 0.2963301950887234 0  1.225 0.4543385630652054 0  0.8942534454394016 0.2565942826843259 0  1.233285787977527 0.1452247822942686 0  0.9521913783223767 0.3590403954102375 0  1.402959200459141 0.4248834538414245 0  0.2988311517486338 0.1740319116149725 0  0.2757694627505424 0.1258000184360167 0  0.9691341716182544 0.4593780639570986 0  1.000739477952067 0.3762161205078692 0  0.7092329343623044 0.3930742315675601 0  0.7013364476378072 0.4462538893399139 0  1.927577376389925 0.4535791974534015 0  0.4318785630121672 0.04099739759539551 0  1.0308658283817
[...]
<PointData  Vectors="f_288"> 
<DataArray  type="Float64"  Name="f_288"  NumberOfComponents="3" format="ascii">-6.9141413135086945e-08 -9.8366683843281906e-09 0.0000000000000000e+00  0.0000000000000000e+00 0.0000000000000000e+00 0.0000000000000000e+00  0.0000000000000000e+00 0.0000000000000000e+00 0.0000000000000000e+00  -1.4910915397316011e-07 -1.3659424377664228e-07 0.0000000000000000e+00  -3.0979543027229597e-07 -3.6211712802447039e-07 0.0000000000000000e+00  -4.2331702630430921e-07 -6.2963141263173485e-07 0.0000000000000000e+00  -9.9290414120728788e-08 6.1331954078016752e-08 0.0000000000000000e+00  -1.0160651288528611e-07 1.7395066972652482e-08 0.0000000000000000e+00  -4.5183767106340377e-07 -2.7581274573617952e-06 0.0000000000000000e+00  -2.9263030694144212e-07 -2.9525600396672200e-06 0.0000000000000000e+00  -1.5921288646308625e-07 -3.1222579299192352e-06 0.0000000000000000e+00  -1.3647740629831548e-07 -3.2525888978328869e-06 0.0000000000000000e+00  1.3863147290571005e-07 -3.2530170016869951e-06 0.0000000000000000e+00  1.6245882070019332e-07 -3.1221162842623095e-06 0.0000000000000000e+00  2.9707229138100892e-07 -2.9502520175512264e-06 0.0000000000000000e+00  4.5593127391517970e-07 -2.7519473314516110e-06 0.0000000000000000e+00  9.2318268576884140e-10 -3.1586185060592086e-06 0.0000000000000000e+00  1.4918387974252690e-07 -1.3650655169972217e-07 0.0000000000000000e+00  0.0000000000000000e+00 0.0000000000000000e+00 0.0000000000000000e+00  0.0000000000000000e+00 0.0000000000000000e+00 0.0000000000000000e+00  6.8279879282023972e-08 -9.2559569620154740e-09 0.0000000000000000e+00  1.0025215560454636e-07 1.7918848450412563e-08 0.0000000000000000e+00  9.9440492778473380e-08 5.8568742290824928e-08 0.0000000000000000e+00  4.3259366199288072e-07 -6.5100463274567578e-07 0.0000000000000000e+00  3.1173730950080901e-07 -3.5768998644246616e-07 0.0000000000000000e+00  8.8652989743535496e-07 2.6958932261843977e-07 0.0000000000000000e+00  -8.8910856641843040e-07 2.6808347053589471e-07 0.0000000000000000e+00  -2.1369685766130133e-07 -3.0413461076192620e-06 0.0000000000000000e+00  2.1564659435644685e-07 -3.0429242738428791e-06 0.0000000000000000e+00  1.3794779989420622e-07 -8.3842172853794182e-08 0.0000000000000000e+00  1.7755750493766041e-09 -3.3374407879880096e-06 0.0000000000000000e+00  -2.1759471261036161e-09 -2.8376934567844621e-06 0.0000000000000000e+00  -1.3517592827456432e-07 -8.4327554140550211e-08 0.0000000000000000e+00  -3.0973722058348542e-07 -2.9359761874096972e-06 0.0000000000000000e+00  3.1373643574076603e-07 -2.9335311829622127e-06 0.0000000000000000e+00  0.0000000000000000e+00 0.0000000000000000e+00 0.0000000000000000e+00  2.4112277970428751e-07 -2.4730229174989690e-07 0.0000000000000000e+00  9.9463320622133992e-08 6.5736471376031362e-10 0.0000000000000000e+00  0.0000000000000000e+00 0.0000000000000000e+00 0.0000000000000000e+00  -1.0114818068436221e-07 -4.2681266921682529e-10 0.0000000000000000e+00  -2.4146856879792557e-07 -2.4588058628168905e-07 0.0000000000000000e+00  3.1081056690775547e-07 -3.7902957325803769e-07 0.0000000000000000e+00  9.8963926688569065e-08 2.2815464655948940e-08 0.0000000000000000e+00  -9.9815739652143204e-08 2.2169946927333317e-08 0.0000000000000000e+00  -3.1236967920189214e-07 -3.8651915131310402e-07 0.0000000000000000e+00  9.8373242338128085e-07 -8.9926123881472882e-07 0.0000000000000000e+00  -9.8468763712188679e-07 -8.9951474647400773e-07 0.0000000000000000e+00  -5.6253423948992409e-07 -2.1896800461461024e-06 0.0000000000000000e+00  5.5957539636386345e-07 -2.1934557391167443e-06 0.0000000000000000e+00  -1.6997047430359334e-07 -1.5381982044529195e-06 0.0000000000000000e+00  1.6646989024144159e-07 -1.5362289567606079e-06 0.0000000000000000e+00  2.3555177783640258e-07 2.1522828648327299e-07 0.0000000000000000e+00  -2.3668730822968575e-07 2.1579328043033992e-07 0.0000000000000000e+00  -1.3441793267743623e-08 -2.7570321102231130e-06 0.0000000000000000e+00  6.7693168756124261e-09 -2.7401837910790322e-06 0.0000000000000000e+00  2.5533449609156553e-07 -4.4366754362046406e-07 0.0000000000000000e+00  -2.5697942680219997e-07 -4.4539787679802921e-07 0.0000000000000000e+00  9.0570363796107294e-07 -1.7697565034356844e-06 0.0000000000000000e+00  9.1402878402901117e-07 -2.4493445337803934e-07 0.0000000000000000e+00  -9.0813406291932693e-07 -1.7720447943362187e-06 0.0000000000000000e+00  -9.1675687101527866e-07 -2.4674144633575465e-07 0.0000000000000000e+00  -2.5687689943713579e-07 -2.2970302951041699e-06 0.0000000000000000e+00  2.5907975728808605e-07 -2.2878486783079589e-06 0.0000000000000000e+00  3.8594120925084188e-08 -7.5509729368697695e-08 0.0000000000000000e+00  4.6850573959566841e-07 -8.1552566446952700e-08 0.0000000000000000e+00  -2.7884593312615446e-08 -6.1733431921201894e-08 0.0000000000000000e+00  -4.7104482686732103e-07 -8.2694147481895337e-08 0.0000000000000000e+00  1.4029603678460741e-09 -2.9840097801996622e-06 0.0000000000000000e+00  6.6357149915053598e-08 -2.2154546261102271e-06 0.0000000000000000e+00  -7.6139822319311458e-08 -2.1932792397151965e-06 0.0000000000000000e+00  -6.2963953097881900e-07 -1.5070007247855202e-06 0.0000000000000000e+00  -3.3312971130926261e-07 -2.6684320231492014e-06 0.0000000000000000e+00  6.2349653276492450e-07 -1.5088319627754211e-06 0.0000000000000000e+00  3.2886940317086948e-07 -2.6640368584737819e-06 0.0000000000000000e+00  -1.7529630637087996e-09 -2.8894693131936216e-06 0.0000000000000000e+00  5.7173682898113461e-07 -1.3170537076572583e-06 0.0000000000000000e+00  -1.0948941705038618e-07 -1.1206534665705520e-06 0.0000000000000000e+00  -8.7884545463026375e-09 -8.4597931206853931e-07 0.0000000000000000e+00  -4.6207670427634834e-07 -9.7371501689591558e-07 0.0000000000000000e+00  1.4006637148120553e-07 -2.8456634640039350e-06 0.0000000000000000e+00  -6.4128860503021088e-07 -5.1989818832710748e-07 0.0000000000000000e+00  -1.2508775722901749e-07 -2.8864303443083682e-06 0.0000000000000000e+00  4.5535496894930890e-08 -2.9646838022759570e-07 0.0000000000000000e+00  5.4564046497363901e-07 -7.6093668452140074e-07 0.0000000000000000e+00  2.0190462668709095e-07 -9.1638092493380413e-07 0.0000000000000000e+00  -3.8045834846529640e-08 -4.9699728626375777e-07 0.0000000000000000e+00  -4.5699642468631784e-07 -1.7229258611435449e-06 0.0000000000000000e+00  -7.3117203702455457e-10 1.3213515949296418e-07 0.0000000000000000e+00  1.4236911355099629e-07 -1.4331180609213101e-06 0.0000000000000000e+00  -3.1986056304814060e-09 1.3168267564741152e-07 0.0000000000000000e+00  5.5309318672496936e-07 2.6083155954217026e-07 0.0000000000000000e+00  -5.5597342972294719e-07 2.6009096239720550e-07 0.0000000000000000e+00  1.4632338380760226e-07 -2.5968549882201814e-06 0.0000000000000000e+00  6.0928507395243783e-07 -3.7518482094855140e-07 0.0000000000000000e+00  -1.5805018363293371e-07 -2.5820041821783912e-06 0.0000000000000000e+00  -9.7963275343871333e-07 -1.3149197847833967e-06 0.0000000000000000e+00  -1.0709555185621282e-07 -1.6885673653118148e-06 0.0000000000000000e+00  9.1985546673878867e-08 -2.8125542549637425e-06 0.0000000000000000e+00  -1.0003960184897216e-07 -2.8049051520341368e-06 0.0000000000000000e+00  3.7044317972545849e-07 -1.7845253730765720e-06 0.0000000000000000e+00  8.9122588122761767e-07 1.3113665861630687e-08 0.0000000000000000e+00  -8.9390060924353660e-07 1.1815588306071652e-08 0.0000000000000000e+00  6.1232331048154862e-07 -1.8729637292408722e-06 0.0000000000000000e+00  9.7500368747338143e-07 -1.3174554856423393e-06 0.0000000000000000e+00  9.5311349075911860e-07 -5.4077523863888565e-07 0.0000000000000000e+00  7.5058987000537882e-07 -2.2383925997156776e-06 0.0000000000000000e+00  -7.5511688086331770e-07 -2.2447342689281381e-06 0.0000000000000000e+00  -9.5436844945443860e-07 -5.4305161727068989e-07 0.0000000000000000e+00  7.1835962959082055e-08 -3.0375111188598977e-06 0.0000000000000000e+00  -1.2340675298281049e-07 -2.2345238172383107e-07 0.0000000000000000e+00  4.7896389190558189e-08 -2.7396632755181605e-07 0.0000000000000000e+00  -2.2874797252127303e-07 -1.7202788647644684e-07 0.0000000000000000e+00  -5.4496466339131243e-08 -3.0415236816969339e-06 0.0000000000000000e+00  2.8525132209126274e-07 -2.0478537361330513e-06 0.0000000000000000e+00  -6.1526206278719397e-07 -1.8716342921248627e-06 0.0000000000000000e+00  -2.1905881915729096e-07 -1.9349886172814214e-06 0.0000000000000000e+00  -2.8668906058746580e-07 -2.6386505932187921e-06 0.0000000000000000e+00  -1.2382908927084916e-07 -2.6339805553393324e-06 0.0000000000000000e+00  5.7297304123357367e-07 -1.1065137314505703e-06 0.0000000000000000e+00  5.4233266519659560e-07 -2.0204476324072265e-06 0.0000000000000000e+00  -1.9590945398537467e-07 2.1109553644692127e-08 0.0000000000000000e+00  1.1733398201223399e-07 -2.6003889963499246e-06 0.0000000000000000e+00  3.8059839251619320e-07 -2.4929752344652975e-06 0.0000000000000000e+00  1.3471994195855834e-07 -2.0131994161546954e-06 0.0000000000000000e+00  -2.1147235883978505e-07 -1.0765272552186119e-06 0.0000000000000000e+00  2.3042940725448758e-07 5.8270209224011791e-09 0.0000000000000000e+00  2.2705000952211406e-07 -1.9228036182448084e-07 0.0000000000000000e+00  -2.9545586511622521e-07 -2.0434492550910830e-06 0.0000000000000000e+00  -5.1340381512493653e-08 1.0025567111772425e-08 0.0000000000000000e+00  -6.1954614500099511e-07 -1.3021285834963721e-06 0.0000000000000000e+00  -3.8383674646953584e-08 -2.9101387988492698e-06 0.0000000000000000e+00  7.3420437501145748e-09 -2.9006056924609758e-06 0.0000000000000000e+00  2.0947973398785959e-07 -8.9519109283113096e-07 0.0000000000000000e+00  1.3706660030186128e-07 -4.7999149803739664e-07 0.0000000000000000e+00  -8.7020261523261129e-08 -9.9453563356263224e-08 0.0000000000000000e+00  -9.2761997307928660e-08 -2.2693569777049321e-06 0.0000000000000000e+00  8.5254704613970458e-08 -1.8360166210018335e-06 0.0000000000000000e+00  -5.6661095976409895e-07 -2.0205888743153312e-06 0.0000000000000000e+00  2.6946151461909076e-08 -2.5279910412835284e-06 0.0000000000000000e+00  7.0726105613546467e-07 -1.1013970273639384e-07 0.0000000000000000e+00  -4.5118751986853960e-07 -3.1329400055756476e-07 0.0000000000000000e+00  -6.6832156810915641e-07 -2.2101310012302181e-07 0.0000000000000000e+00  5.3479731241240843e-08 1.4768404464665756e-08 0.0000000000000000e+00  8.4708749213733277e-08 -1.2343494751977117e-07 0.0000000000000000e+00  3.3320677223918992e-07 -1.2232374771626450e-06 0.0000000000000000e+00  -1.8817707461587510e-07 -7.1113438621828533e-07 0.0000000000000000e+00  1.0392033626648176e-08 -2.4766666188099085e-06 0.0000000000000000e+00  -3.9010704353240432e-07 2.4436901181207391e-07 0.0000000000000000e+00  -3.6798404188910808e-07 -1.3281856180688646e-06 0.0000000000000000e+00  -6.7918142950467130e-07 -1.5089631635452269e-08 0.0000000000000000e+00  1.1945600493740885e-10 -2.8647243266991666e-06 0.0000000000000000e+00  2.9728172642508033e-08 -2.8461202970282545e-06 0.0000000000000000e+00  7.2562303816896387e-08 5.9611449814336606e-08 0.0000000000000000e+00  4.6199893318230799e-07 -2.4633706814983868e-06 0.0000000000000000e+00  7.2247381090051899e-07 2.6814173641555062e-07 0.0000000000000000e+00  6.0671991397311367e-07 6.7727270785462739e-08 0.0000000000000000e+00  3.8890143822014389e-07 2.4505896193554931e-07 0.0000000000000000e+00  1.1093699694878546e-07 -3.2974182627631787e-06 0.0000000000000000e+00  1.0078992187915335e-07 -3.1297962765985585e-06 0.0000000000000000e+00  -1.7343216431155492e-07 -1.4762636556919569e-07 0.0000000000000000e+00  0.0000000000000000e+00 0.0000000000000000e+00 0.0000000000000000e+00  1.1002818935793660e-07 -3.5543215189594126e-08 0.0000000000000000e+00  0.0000000000000000e+00 0.0000000000000000e+00 0.0000000000000000e+00  1.7463538126072813e-07 -1.4625721910700404e-07 0.0000000000000000e+00  0.0000000000000000e+00 0.0000000000000000e+00 0.0000000000000000e+00  -1.1177230776269247e-07 -3.3698877364004151e-08 0.0000000000000000e+00  0.0000000000000000e+00 0.0000000000000000e+00 0.0000000000000000e+00  -1.0803914797812585e-07 -3.2974849512032332e-06 0.0000000000000000e+00  -9.8405373804188952e-08 -3.1295010582109320e-06 0.0000000000000000e+00  -6.9287413300264671e-07 -8.1639255146074940e-07 0.0000000000000000e+00  -4.3066375750968629e-07 -6.4864861174247135e-07 0.0000000000000000e+00  -3.6805776582469128e-08 -2.8271337165106718e-06 0.0000000000000000e+00  -3.0148441242698040e-07 -2.3596518386839520e-06 0.0000000000000000e+00  6.4104919782951243e-07 -1.6415997779284544e-06 0.0000000000000000e+00  3.9694823520833116e-07 -3.1006079708637152e-07 0.0000000000000000e+00  -6.1893215366514316e-08 -2.0825719932305269e-07 0.0000000000000000e+00  -2.9171100950781427e-09 -2.9176961448224991e-06 0.0000000000000000e+00  2.1670078736103024e-07 -2.3485867875634233e-06 0.0000000000000000e+00  5.2082390338499295e-08 -2.9182120887868530e-06 0.0000000000000000e+00  -3.5739119891080012e-08 -1.2055059087186619e-06 0.0000000000000000e+00  -1.7171022014350874e-07 -2.7925996956564789e-06 0.0000000000000000e+00  -5.8614028309995995e-07 -1.1038110033580092e-06 0.0000000000000000e+00  -4.6478275261603149e-07 -2.4607277068926126e-06 0.0000000000000000e+00  1.6901181605489094e-07 -2.7923481025161193e-06 0.0000000000000000e+00  -1.7470610630976198e-07 -7.0937061682315802e-07 0.0000000000000000e+00  7.0713811622300288e-07 -1.0011560674871450e-06 0.0000000000000000e+00  -2.9103553722493426e-07 -1.4534274469274504e-06 0.0000000000000000e+00  -2.0317945254401498e-08 -5.3464715793203228e-07 0.0000000000000000e+00  7.7772289069028877e-07 -7.0635701259326457e-07 0.0000000000000000e+00  1.5209645351617512e-08 -1.3827273818132639e-06 0.0000000000000000e+00  4.4521069216417295e-07 -5.2810049481593685e-07 0.0000000000000000e+00  3.0601296727199593e-07 -6.8890306781060851e-07 0.0000000000000000e+00  1.2941308154910827e-07 -5.8208378627506829e-07 0.0000000000000000e+00  -1.0487920218051944e-07 1.7419872532367582e-07 0.0000000000000000e+00  -4.6987975990800200e-07 8.9412692337981911e-08 0.0000000000000000e+00  3.9839584977264429e-07 7.4123759639427245e-08 0.0000000000000000e+00  -6.1341845199073973e-08 5.1788215428585006e-08 0.0000000000000000e+00  -7.4880073836941284e-07 -1.5446035050098257e-06 0.0000000000000000e+00  3.4356255414754900e-07 -1.6940029185981236e-06 0.0000000000000000e+00  -2.1165043519088373e-07 -2.9218126677925044e-06 0.0000000000000000e+00  -3.7088138567474258e-10 -8.1231926484269512e-07 0.0000000000000000e+00  -9.3521253472095675e-07 -3.8984938315110035e-07 0.0000000000000000e+00  3.3086338629514571e-07 -1.2711652136929053e-06 0.0000000000000000e+00  -5.7072139365471395e-08 -1.9799494617607072e-06 0.0000000000000000e+00  -4.5668992295937940e-07 -2.3604641835508614e-06 0.0000000000000000e+00  1.2027021372634993e-07 -2.3426157522986606e-06 0.0000000000000000e+00  -7.2466606124479797e-07 2.6663340739869113e-07 0.0000000000000000e+00  2.5794479719307785e-07 -2.8014154122508755e-06 0.0000000000000000e+00  -1.7011833077429743e-07 -3.7827382372226839e-07 0.0000000000000000e+00  -9.8768697782899535e-07 -1.1035037370941585e-06 0.0000000000000000e+00  4.5709619672201374e-08 -1.7921556139601529e-06 0.0000000000000000e+00  1.6424713932151055e-07 -1.2167255878521642e-06 0.0000000000000000e+00  4.9208131692741426e-07 -1.0270530567271088e-06 0.0000000000000000e+00  6.2298335237284465e-08 9.0635967597025394e-08 0.0000000000000000e+00  -6.0943165642866834e-08 9.0062883632856964e-08 0.0000000000000000e+00  2.2970147333339592e-07 -2.5550965707925136e-06 0.0000000000000000e+00  7.3346368785569072e-08 -2.7859822828644191e-06 0.0000000000000000e+00  -3.7497745366454082e-07 -2.0286415739076224e-06 0.0000000000000000e+00  -3.1210812014481173e-07 -1.6246805309822649e-06 0.0000000000000000e+00  1.5498796126703172e-07 -2.6698671285900536e-07 0.0000000000000000e+00  -9.3448542714125495e-08 -3.7694618511079930e-07 0.0000000000000000e+00  -9.5986159095227535e-09 -1.5595281913069526e-06 0.0000000000000000e+00  3.2477832972619946e-07 -1.5214084727080751e-06 0.0000000000000000e+00  -3.0814623365847294e-07 -1.1207918594524481e-06 0.0000000000000000e+00  1.0271504998923141e-07 1.7598773082858121e-07 0.0000000000000000e+00  -7.0950299427082227e-08 -2.7995169376445759e-06 0.0000000000000000e+00  1.6095806847084623e-07 -2.9614670537059174e-06 0.0000000000000000e+00  -5.9882925399176016e-08 -2.9691620075836271e-06 0.0000000000000000e+00  5.7278767091918594e-08 -2.7239141139070958e-06 0.0000000000000000e+00  2.7184299663486373e-07 -2.5868083074453268e-06 0.0000000000000000e+00  -3.7868907109189373e-07 -1.7641884907989208e-06 0.0000000000000000e+00  -1.9855384511404098e-07 -2.6854346572567446e-06 0.0000000000000000e+00  -6.4757327240077073e-08 -2.6968283168216613e-06 0.0000000000000000e+00  -1.5089975566167627e-07 -2.3842419385446255e-06 0.0000000000000000e+00  -3.3079687141349094e-07 -8.2452422562814227e-07 0.0000000000000000e+00  9.3279147074238644e-07 -3.8663453032912422e-07 0.0000000000000000e+00  7.5743148006962896e-07 -4.9825401505802537e-07 0.0000000000000000e+00  -9.0236873074370244e-07 -1.1604715554846038e-07 0.0000000000000000e+00  -6.4079963598926843e-07 1.3074675857798050e-07 0.0000000000000000e+00  5.7519403288138169e-07 -2.0560122272446612e-07 0.0000000000000000e+00  7.4472274714259458e-07 -2.7061605196839058e-07 0.0000000000000000e+00  -3.0764028601561733e-07 1.1240388755884341e-07 0.0000000000000000e+00  2.2444230655967124e-07 -1.7684346849907648e-06 0.0000000000000000e+00  -3.0810903770242931e-07 -6.2169569402827328e-08 0.0000000000000000e+00  -8.8971474665828029e-07 1.3899111204104794e-07 0.0000000000000000e+00  8.8752169734060032e-07 1.4014957480150793e-07 0.0000000000000000e+00  -4.4693247024407352e-08 -3.2316270722484920e-06 0.0000000000000000e+00  5.6396366096863315e-08 -3.2348086562158341e-06 0.0000000000000000e+00  -1.0628140517743895e-07 -6.4034910256716676e-08 0.0000000000000000e+00  -7.7387843831785339e-08 -2.7407530644484409e-08 0.0000000000000000e+00  7.6427824603684707e-08 -2.7710454729806698e-08 0.0000000000000000e+00  1.0343669171079991e-07 -6.2437620727387946e-08 0.0000000000000000e+00  -6.3278062155575961e-07 -1.0424085617511010e-06 0.0000000000000000e+00  -7.0312378812189518e-09 -2.8635327339411407e-06 0.0000000000000000e+00  1.0881729125197410e-07 -1.1197806741092542e-06 0.0000000000000000e+00  -9.7461245829655496e-07 -7.1362322579772642e-07 0.0000000000000000e+00  -7.8756550467023345e-07 -6.3615848784526944e-07 0.0000000000000000e+00  -5.2761186143582657e-08 -1.8993120584620887e-07 0.0000000000000000e+00  4.0345716345640150e-08 -1.0857486148049947e-06 0.0000000000000000e+00  -3.7236273055909864e-07 -1.8344830666738087e-07 0.0000000000000000e+00  3.0717177155981008e-08 -2.2586492636466943e-06 0.0000000000000000e+00  9.1690786276158881e-08 -4.6577566533108762e-08 0.0000000000000000e+00  -6.8810593096323540e-08 -2.5003980198380425e-06 0.0000000000000000e+00  3.4090475325833581e-07 -9.7570916903683423e-07 0.0000000000000000e+00  1.5637160248913660e-07 -2.7109938963853829e-06 0.0000000000000000e+00  -7.4819591624650009e-08 -1.9436270841215580e-06 0.0000000000000000e+00  3.1417835000852718e-08 -2.8593420230927018e-06 0.0000000000000000e+00  -7.3576477547154253e-08 -2.5420433904678337e-06 0.0000000000000000e+00  1.3652356474959837e-07 -3.1645162678757899e-06 0.0000000000000000e+00  1.4855651999099075e-07 -1.1978224344256279e-07 0.0000000000000000e+00  7.3721377647988787e-08 -9.6158500338744689e-09 0.0000000000000000e+00  -1.4628350017980747e-07 -1.1835453727332209e-07 0.0000000000000000e+00  -7.4301175859726964e-08 -9.4595793327284166e-09 0.0000000000000000e+00  -1.3218087459140987e-07 -3.1651858706019223e-06 0.0000000000000000e+00  1.3670112846516933e-07 -1.5078745856369096e-07 0.0000000000000000e+00  -7.7300070867182246e-08 -2.8353731279221885e-06 0.0000000000000000e+00  -1.7745254588923442e-07 -2.8715826284376846e-07 0.0000000000000000e+00  -2.7785600220766477e-07 -2.5388371131173734e-06 0.0000000000000000e+00  3.2805690216329384e-07 -2.4150145729144336e-06 0.0000000000000