<?xml version="1.0"?>
<VTKFile type="UnstructuredGrid"  version="0.1"  >
<UnstructuredGrid>
<Piece  NumberOfPoints="372" NumberOfCells="644">
<Points>
<DataArray  type="Float64"  NumberOfComponents="3"  format="ascii">0.1 0 0  0.1353553390593274 -0.01464466094067263 0  0.15 -0.05 0  0.15 -0.1 0  0.35 -0.1 0  0.35 -0.05 0  0.3646446609406726 -0.01464466094067262 0  0.4 0 0  0.8853553390593274 0.5146446609406726 0  0.85 0.5 0  1.15 0.5 0  1.114644660940673 0.5146446609406726 0  1.1 0.55 0  1.1 0.6 0  0.9 0.6 0  0.9 0.55 0  1.6 0 0  1.635355339059327 -0.01464466094067263 0  1.65 -0.05 0  1.65 -0.1 0  1.85 -0.1 0  1.85 -0.05 0  1.864644660940673 -0.01464466094067262 0  1.9 0 0  0 0.5 0  0 0 0  2 0 0  2 0.5 0  1 0.5 0  1 0 0  1.75 0 0  0.25 0 0  1 0.6 0  0.926536686473018 0.5 0  1.073463313526982 0.5 0  1.75 -0.1 0  1.823463313526982 0 0  1.676536686473018 0 0  0.176536686473018 0 0  0.323463313526982 0 0  0.8882683432365091 0.5 0  1.111731656763491 0.5 0  1.861731656763491 0 0  1.638268343236509 0 0  0.138268343236509 0 0  0.361731656763491 0 0  1.575 0.5 0  0.425 0.5 0  1.3 0 0  0.7 0 0  0.55 0.243125 0  1.3625 0.5 0  1.7875 0.5 0  2 0.25 0  0.2125 0.5 0  0 0.25 0  1.45 0.2351562500000001 0  1.15 0.2275 0  0.814142661900757 0.2382572014297729 0  1.713268343236509 0.2541611242572618 0  0.286731656763491 0.2541611242572618 0  0.6375 0.5 0  1.25625 0.36375 0  0.9802565507295946 0.1762182083101574 0  0.85 0 0  0.963268343236509 0.3397469594051027 0  0.1420232678912347 0.3445927222924505 0  1.857976732108765 0.3445927222924504 0  0.6839171015261212 0.3408486454655549 0  1.301709900142829 0.1643279561381291 0  1.45 0 0  1.15 0 0  0.55 0 0  1.842597485145236 0.1592646942832626 0  0.144604305213471 0.1667405213441943 0  1.46875 0.3882270925516225 0  0.4146007600921047 0.1588268125395756 0  0.53125 0.3928520377128954 0  0.6805070573017298 0.1558084993635351 0  1.68125 0.5 0  1.611626314419634 0.3587970113946699 0  0.31875 0.5 0  0.3892553399485741 0.3583011382809036 0  1.587911029250545 0.1577074194056631 0  1.102395983486086 0.3597518576280467 0  0.8343903911551274 0.3688109020951406 0  0.2668095536961531 0.1273054767285641 0  1.718062799231036 0.1251192118481992 0  0 0.125 0  0 0.375 0  2 0.375 0  2 0.125 0  0.2638891507610101 0.3830110433290314 0  1.736332685874272 0.3782504055140868 0  1.09174722734604 0.11375 0  0.5317423578086695 0.1215625 0  0.8662122253178564 0.1242667521957181 0  0.7437499999999999 0.5 0  1.415099204334789 0.117578125 0  1.338647941495704 0.2776407889789468 0  1.225 0.08295328010269039 0  1.044934141896312 0.2655840357581922 0  1.360670194630334 0.3918741601506566 0  1.46875 0.5 0  0.10625 0.5 0  0.53125 0.5 0  1.25625 0.5 0  1.89375 0.5 0  1.514188796360536 0.08302208062992271 0  0.764381560681757 0.0871782847094863 0  1.525778759672189 0.3035577218371151 0  0.625 0 0  0.4431830765826266 0.2638058829959287 0  0.25 -0.1 0  1.240660335970882 0.266354325160321 0  1.613135331127417 0.2546123123655805 0  1.813358977995536 0.2549931494680896 0  1.906104158580891 0.2309910584897394 0  0.7160619825354541 0.2477047636407877 0  0.925 0 0  0.9625 0.08501363826466637 0  0.8852526091230761 0.2940756474247963 0  0.4525140107451148 0.0752569709414295 0  0.09916529813975694 0.2550259274906409 0  0.1929155020677784 0.2474415259352375 0  1.036731656763491 0.4193139736065037 0  1.203125 0.431875 0  0.1191341716182545 0.08421771868519158 0  0.8962417457561944 0.2068715235395836 0  1.412435890904155 0.3226551697005143 0  1.812744090440489 0.4177639872738315 0  2 0.3125 0  0.159375 0.4304078957378359 0  0.7494528395049671 0.4070332630510013 0  0.7717200552244098 0.3116835467120756 0  1.880865828381745 0.08308053625690677 0  0.07365810962618054 0.4200468568177466 0  1.795249660263852 0.08777780029796906 0  0.3516916474731152 0.09155479034181555 0  1.18025284269447 0.325968985519588 0  0.6323274338087806 0.2709258373246736 0  0.6219855934554097 0.4091306240646214 0  1.639428664797117 0.08726396851051005 0  0.6625 0.07443205178578602 0  1.485672270449515 0.1605987493580833 0  1.375 0 0  1.334023824221336 0.08181884225663613 0  0.9119168970963484 0.4123128344559089 0  0.9626652395603791 0.2570375191746969 0  1.214814068490802 0.1693989100154473 0  1.374105283956196 0.2034053024600933 0  1.917667337647564 0.4126734870004296 0  0.06237675495358546 0.1802554380819812 0  1.763838584947058 0.1914300004417605 0  0.3324019458919943 0.181996651206603 0  0.4890553996976525 0.1901260344760563 0  0.7632000246794353 0.1713018536657513 0  1.059512678371377 0.1869451893453361 0  1.53857701521347 0.2222844259334116 0  0.569362093608741 0.3215872042601962 0  0.3363725918863069 0.4203783416586453 0  1.664587073927285 0.1877423845881905 0  1.665987056316035 0.4197594292283667 0  0.6121612307083084 0.1948448660533402 0  0.3635986755794288 0.2810233655302244 0  0.4686693374648059 0.3409864077489287 0  0.4539411332113522 0.4224448269471819 0  0.200975900620556 0.07832922670223591 0  0 0.3125 0  1.521875 0.4441135462758112 0  0.2162668599857411 0.3215794704189798 0  1.416534407813248 0.4441135462758113 0  1.309375 0.4468206275839642 0  1.923593198217523 0.1518983615684542 0  1.225 0 0  0.475 0 0  0.7749999999999999 0 0  1.525 0 0  1.075 0 0  1.034542404617546 0.06601440231488438 0  0 0.0625 0  1.593701228004961 0.4294991664772548 0  1.663440908321481 0.3074442188679626 0  1.923774414085621 0.3054725162263883 0  0.07228138842215298 0.3229271843579871 0  0.6906249999999999 0.5 0  1.786831499600475 0.3241118966815731 0  2 0.0625 0  0.3202006590878603 0.3383297225809998 0  0.2437545844041715 0.1959183165531021 0  1.540947765496889 0.3743111449309621 0  1.106209335162126 0.4299328079448052 0  1.112783732157442 0.2887974700967868 0  1.034749572820424 0.3364144417265655 0  0.2887783217416974 0.060823237606658 0  0.5861586322331098 0.0675830360658785 0  0.8973672327010591 0.0629665219425492 0  0.796875 0.5 0  1.152535091138951 0.07308923163702299 0  0.8124268369549432 0.4334886901113615 0  0.8294032395915556 0.06699191709900851 0  1.145951773090357 0.1577821664253368 0  1.734375 0.5 0  0.3872390552208133 0.2191484904352268 0  1.700216649434573 0.06159150686191597 0  0.61884183408656 0.1271924733628141 0  0.265625 0.5 0  0.584375 0.5 0  0.2042848518990046 0.1426161233053394 0  0.2247297063311217 0.4355908763403239 0  0.6856628931319081 0.4046588885630085 0  0.5030521214231167 0.2868344042137864 0  0.06351333175220442 0.1161367269918164 0  0.9232040328565323 0.1503091162016526 0  0.8273077242192703 0.1753832328088175 0  1.576465494606999 0.09527691522563406 0  0.9730228494753786 0.4390149647299337 0  2 0.1875 0  0 0.1875 0  0 0.4375 0  2 0.4375 0  1.72496736064629 0.3170280025280643 0  1.4125 0.05283772530685282 0  0.2120539235169397 -0.05089215296612071 0  0.286731656763491 -0.05000000000000001 0  1.786731656763491 -0.05000000000000001 0  1.71205392351694 -0.05089215296612081 0  0.963268343236509 0.5499999999999999 0  1.036731656763491 0.55 0  1.159946476756591 0.3857772992265817 0  1.026776472354667 0.1306613177787031 0  1.946875 0.5 0  0.5125000000000001 0.05219237822021986 0  0.5506122789343104 0.1808807205386344 0  0.1962248032750062 0.3803869468852152 0  1.357419486887876 0.1385638153674606 0  1.75312780640874 0.4394110011399055 0  0.06309766683452518 0.05220626693524028 0  1.866685804796728 0.2843469777001684 0  0.8934748791920796 0.3543465953989462 0  1.943706086385112 0.09173761979397514 0  0.4723905425720284 0.1321806643209403 0  0.5578125 0.4464260188564477 0  1.427701363653826 0.1763009563252264 0  1.294568354388783 0.2293329782562588 0  1.397366486972295 0.2643729603747165 0  1.285375692445333 0.3091424692282126 0  0.371875 0.5 0  1.95 0 0  0.3952351267759932 0.4169588978615399 0  0.6681001083097404 0.2134350659457945 0  1.337822227812954 0.3370394162568601 0  0.627043180215654 0.3288176676355178 0  1.866682031500742 0.4456479706402614 0  1.096412527576802 0.05495530192974003 0  1.47173415494396 0.3286966131608954 0  0.829741357677547 0.3109717748081037 0  0.281811029746165 0.43723071510628 0  1.628125 0.5 0  1.667676591501413 0.3635346626957098 0  1.279780070007437 0.108157062651906 0  1.2625 0.04147664005134519 0  1.093288668992312 0.2350146842272665 0  1.014776558027608 0.2193224926681506 0  0.7158814072826597 0.4508858252356244 0  0.148875383376485 0.286276736765647 0  0.478125 0.5 0  1.187341872713489 0.1223389259010118 0  0.4111206078244619 0.3081437774358042 0  0.053125 0.5 0  0.7374999999999999 0.03966825943308927 0  0.7102194904709515 0.1065531709179994 0  0.810160921399707 0.1198239207762339 0  1.771519697137402 0.1371721542766672 0  0.9918543683883102 0.3870512349419566 0  1.553824322349781 0.04596848920027192 0  1.414304078918384 0.3780183872688552 0  1.304857735946293 0.3911870314783804 0  1.258557060392048 0.4229466847475187 0  1.910777596300392 0.358506548083023 0  0.8691341716182546 0.4478071618567059 0  1.000267784893303 0.2953089582883232 0  1.36297820209117 0.4463972590429522 0  0.6568469348569831 0.4499377396114613 0  0.5047377780498882 0.4393690180317946 0  0.3364385067057792 0.2350850197261255 0  1.415625 0.5 0  0.159375 0.5 0  1.309375 0.5 0  1.521875 0.5 0  1.203125 0.5 0  1.840625 0.5 0  1.467937345686539 0.05245661229642179 0  0.4398500289050561 0.2106110166695337 0  0.1904269098954539 0.1941423531118995 0  0.1437586367689645 0.223029025736778 0  1.469204703906624 0.4409880806963635 0  0.2716259365528726 0.308906445039521 0  1.53611171602213 0.1351103110646566 0  1.466336971802008 0.1051547050641564 0  1.584707603930641 0.3063038415103279 0  0.7170763997031501 0.1955878717971495 0  1.66527070835977 0.1341823446458058 0  0.3979014170003797 0.0574149006536949 0  1.957454398789137 0.21875 0  0.1592281723324378 0.1170349605893605 0  1.16305297344683 0.2773715227122724 0  1.19374206174922 0.04147664005134519 0  0.4118581211268609 0.1071975551910213 0  0.04848189422631843 0.2742316778421076 0  0.5198223497518735 0.335473690397295 0  0.5814797511015446 0.3738911696135933 0  1.480704019575092 0.2773173071478024 0  0.1574
[...]
<PointData  Vectors="f_289"> 
<DataArray  type="Float64"  Name="f_289"  NumberOfComponents="3" format="ascii">-1.5623014097170814e-04 -1.4725239864467151e-05 0.0000000000000000e+00  -1.4289795891405212e-04 -5.0690795126007527e-05 0.0000000000000000e+00  -9.0234592794532920e-05 -4.9130467988985189e-05 0.0000000000000000e+00  0.0000000000000000e+00 0.0000000000000000e+00 0.0000000000000000e+00  0.0000000000000000e+00 0.0000000000000000e+00 0.0000000000000000e+00  -1.1649418139942369e-04 -8.7756677232494508e-05 0.0000000000000000e+00  -2.2114623915539999e-04 -2.3304858517746022e-04 0.0000000000000000e+00  -2.8359314554888572e-04 -3.9973376649922964e-04 0.0000000000000000e+00  1.3137766385377174e-04 -1.9038944381148386e-03 0.0000000000000000e+00  2.2222313841780206e-04 -1.7594817730234333e-03 0.0000000000000000e+00  -2.1899509178188034e-04 -1.7531676362351901e-03 0.0000000000000000e+00  -1.2879991242216121e-04 -1.8993907149593386e-03 0.0000000000000000e+00  -4.4687011899301369e-05 -2.0364880566108392e-03 0.0000000000000000e+00  -9.3189745093827401e-06 -2.1712054472390377e-03 0.0000000000000000e+00  7.9840395863078257e-06 -2.1768915472291724e-03 0.0000000000000000e+00  4.6585087443885183e-05 -2.0420967695307544e-03 0.0000000000000000e+00  2.8452577790580091e-04 -4.0379096415132145e-04 0.0000000000000000e+00  2.2228136575341227e-04 -2.2527436920913134e-04 0.0000000000000000e+00  1.1594728489774092e-04 -8.5856579831980348e-05 0.0000000000000000e+00  0.0000000000000000e+00 0.0000000000000000e+00 0.0000000000000000e+00  0.0000000000000000e+00 0.0000000000000000e+00 0.0000000000000000e+00  9.1353340829879135e-05 -5.0930028665436373e-05 0.0000000000000000e+00  1.4598975011595984e-04 -5.3982121348536870e-05 0.0000000000000000e+00  1.5996308834575711e-04 -1.5088666926574073e-05 0.0000000000000000e+00  5.1845310695860234e-04 1.6882700672119034e-04 0.0000000000000000e+00  -1.6568519577198152e-04 9.4966744065058168e-05 0.0000000000000000e+00  1.7001279853018947e-04 9.3137162752563352e-05 0.0000000000000000e+00  -5.1326945760285167e-04 1.6657450327426431e-04 0.0000000000000000e+00  1.3741614670096462e-06 -1.9931182069756466e-03 0.0000000000000000e+00  -9.8108621447200676e-07 -1.7088607410388082e-03 0.0000000000000000e+00  1.5022275335888931e-04 -9.3308119346643836e-05 0.0000000000000000e+00  -1.4946700911860962e-04 -9.4661272743149823e-05 0.0000000000000000e+00  -7.3998769962481985e-07 -2.1724096324481118e-03 0.0000000000000000e+00  8.3020561985034478e-05 -1.9578308117139428e-03 0.0000000000000000e+00  -7.8081105249778795e-05 -1.9524723572352518e-03 0.0000000000000000e+00  0.0000000000000000e+00 0.0000000000000000e+00 0.0000000000000000e+00  1.4553273734839025e-04 -6.1642987007351043e-05 0.0000000000000000e+00  1.8675802613616425e-04 -1.6060296151647444e-04 0.0000000000000000e+00  -1.4151925291494303e-04 -5.9038224528464505e-05 0.0000000000000000e+00  -1.8448144523360423e-04 -1.6046711571439688e-04 0.0000000000000000e+00  1.4012873026069181e-04 -1.8906819011745399e-03 0.0000000000000000e+00  -1.3767505759569858e-04 -1.8865564314752958e-03 0.0000000000000000e+00  1.4913186416280045e-04 -5.1056320368555205e-05 0.0000000000000000e+00  2.2312540759269285e-04 -2.4081703808366295e-04 0.0000000000000000e+00  -1.4634615295504278e-04 -4.7547861300068102e-05 0.0000000000000000e+00  -2.2368894664454863e-04 -2.5014847531096068e-04 0.0000000000000000e+00  -5.4987787377129300e-04 -6.1525320994031010e-04 0.0000000000000000e+00  5.5435977835740613e-04 -6.1516977205370129e-04 0.0000000000000000e+00  3.2908716052197228e-04 -1.3164826517133247e-03 0.0000000000000000e+00  -3.2409049766034622e-04 -1.3171593454049365e-03 0.0000000000000000e+00  7.2858626365165694e-05 -9.3004095085033481e-04 0.0000000000000000e+00  -4.8252548777983164e-04 -1.1667259540942992e-03 0.0000000000000000e+00  -5.2596690361459190e-04 -1.8054220228521349e-04 0.0000000000000000e+00  -1.0461579858735799e-04 1.4104628945375060e-04 0.0000000000000000e+00  5.3112439647142384e-04 -1.7963425159980072e-04 0.0000000000000000e+00  1.0927742906963683e-04 1.4271317550694347e-04 0.0000000000000000e+00  -5.7867718880723558e-05 -9.3071951689432345e-04 0.0000000000000000e+00  2.0728790939321525e-06 -1.6487529328895437e-03 0.0000000000000000e+00  1.1857552814358387e-05 -1.5923172368051768e-03 0.0000000000000000e+00  -1.0780357041598835e-04 -2.8461702973288274e-04 0.0000000000000000e+00  1.1112234825281428e-04 -2.8523282566810470e-04 0.0000000000000000e+00  4.8823894324847162e-04 -1.1655032146954550e-03 0.0000000000000000e+00  -1.4614700298815100e-04 -1.4570169715058515e-03 0.0000000000000000e+00  -2.2200453128901812e-06 -1.7508226542053925e-03 0.0000000000000000e+00  -1.8540733647205140e-04 -1.6050289155501881e-03 0.0000000000000000e+00  1.7769757779198530e-05 -1.8262622920959058e-03 0.0000000000000000e+00  2.5726301522983604e-04 -5.8907913183955994e-05 0.0000000000000000e+00  -2.5264819625956016e-04 -6.0945024281318235e-05 0.0000000000000000e+00  1.5509072110836880e-04 -1.3010078640914007e-03 0.0000000000000000e+00  5.3780931936935442e-05 -1.3260187097938992e-03 0.0000000000000000e+00  3.7570806811384355e-04 -9.1298377053567620e-04 0.0000000000000000e+00  1.8897392895472949e-04 -1.6081113132156402e-03 0.0000000000000000e+00  -3.6878480635046636e-04 -9.1168104456239199e-04 0.0000000000000000e+00  2.4206627700587422e-05 -6.9044738372293237e-05 0.0000000000000000e+00  -8.7308650023652554e-06 -5.3255893707690573e-05 0.0000000000000000e+00  -2.9423502581630613e-04 -8.8753303322034881e-04 0.0000000000000000e+00  -2.4117451640438647e-05 -5.2476713655744427e-04 0.0000000000000000e+00  3.0916454550867280e-04 -8.8518645296672375e-04 0.0000000000000000e+00  -5.9817343175050477e-05 -1.2815023118078743e-03 0.0000000000000000e+00  -5.4236178796014851e-04 -3.8077638208812534e-04 0.0000000000000000e+00  -2.7165968168484745e-04 -5.2461475680344236e-04 0.0000000000000000e+00  5.4775877872817339e-04 -3.7989239362673586e-04 0.0000000000000000e+00  2.7600771083763782e-04 -5.2481253283295207e-04 0.0000000000000000e+00  3.0359073807025814e-05 -5.1913385668589081e-04 0.0000000000000000e+00  -4.8694757063242532e-05 -1.7811365481799383e-03 0.0000000000000000e+00  9.4260470971511718e-05 -1.6747783398609870e-03 0.0000000000000000e+00  -6.5104039064673593e-05 -1.9188079507911047e-04 0.0000000000000000e+00  7.2338569572046561e-05 -2.1376318167789962e-04 0.0000000000000000e+00  -4.9475224553264861e-05 1.1076408938106410e-04 0.0000000000000000e+00  3.0909662286462389e-04 1.6406444842685092e-04 0.0000000000000000e+00  -3.0419389737260474e-04 1.6237143240177034e-04 0.0000000000000000e+00  5.2604382514466811e-05 1.0860436942455469e-04 0.0000000000000000e+00  3.2392941834828785e-04 -2.6637661319269711e-04 0.0000000000000000e+00  -3.1028459061633543e-04 -2.6680464207008860e-04 0.0000000000000000e+00  5.0503804409728187e-05 -1.6924153772180555e-03 0.0000000000000000e+00  -9.9721267268650329e-05 -8.6186882169135407e-04 0.0000000000000000e+00  -5.8816209167447659e-05 -1.6469573767388841e-03 0.0000000000000000e+00  3.9211201740229235e-04 -1.4501905275213407e-03 0.0000000000000000e+00  1.1658695246730118e-04 -1.0186110652070665e-03 0.0000000000000000e+00  -8.2292564973525948e-05 -1.2394978888381162e-03 0.0000000000000000e+00  1.4014010742691922e-04 -1.4922717885460311e-03 0.0000000000000000e+00  -2.1753524221452894e-06 -1.7737913545061912e-03 0.0000000000000000e+00  -2.5137749821852362e-04 -1.1810609838363430e-03 0.0000000000000000e+00  -5.3503018221193839e-04 -8.8284944506186833e-04 0.0000000000000000e+00  5.2044682461722567e-04 -3.8832361429360811e-06 0.0000000000000000e+00  5.3859655713220833e-04 -8.8177774140432079e-04 0.0000000000000000e+00  -3.8162075642281620e-04 -1.4541454892225446e-03 0.0000000000000000e+00  -5.1527373533020212e-04 -5.6350507390308089e-06 0.0000000000000000e+00  1.5800558843592099e-04 -7.1450653196754679e-04 0.0000000000000000e+00  -1.3458001644277347e-04 -1.4693417655199021e-03 0.0000000000000000e+00  -1.6943550023736608e-04 -7.3093041678142434e-04 0.0000000000000000e+00  -3.5802032547499414e-04 -1.1260708158607280e-03 0.0000000000000000e+00  1.2027726589485443e-04 -6.3988843876643781e-04 0.0000000000000000e+00  0.0000000000000000e+00 0.0000000000000000e+00 0.0000000000000000e+00  -4.1289134674240791e-05 -1.4821999992231320e-03 0.0000000000000000e+00  -1.0663222834464665e-04 -4.9932782961904039e-04 0.0000000000000000e+00  -1.0845103984650353e-04 -1.2228234907202815e-04 0.0000000000000000e+00  -7.3729356773178571e-05 9.5452156228512400e-06 0.0000000000000000e+00  3.8794299383249286e-05 -1.3776874408614676e-03 0.0000000000000000e+00  -9.2649408197221860e-05 -1.6829274033882430e-03 0.0000000000000000e+00  -2.4008911962599575e-05 -1.7206087304059221e-03 0.0000000000000000e+00  3.0331706605334765e-05 -1.7271615553766833e-03 0.0000000000000000e+00  -1.5989330097870903e-04 -6.0406587423226740e-04 0.0000000000000000e+00  1.1390332610431714e-04 4.8398485781967307e-06 0.0000000000000000e+00  1.0083829777598952e-04 -1.2817532844929059e-04 0.0000000000000000e+00  -2.6520169301020401e-05 -1.8930642612107948e-03 0.0000000000000000e+00  -1.8731417185993490e-04 -1.5998330532355327e-03 0.0000000000000000e+00  -9.5159741843296348e-05 -2.4509399329049146e-05 0.0000000000000000e+00  -6.7844707454237300e-06 -1.7061717568653590e-03 0.0000000000000000e+00  -1.6803064917365781e-04 -1.0405872437997078e-03 0.0000000000000000e+00  -3.7892251044356303e-04 -1.3566019748164693e-04 0.0000000000000000e+00  -2.0132169320987123e-04 1.5396584573923843e-04 0.0000000000000000e+00  4.0453422072662173e-04 -8.8421974959991320e-05 0.0000000000000000e+00  2.0211396618282666e-04 -1.4754454754963456e-03 0.0000000000000000e+00  8.1079681053475349e-05 -1.5200998160080398e-03 0.0000000000000000e+00  1.0038942360971586e-04 -2.6163920616877429e-05 0.0000000000000000e+00  3.8490110967557601e-04 4.7731669761551735e-05 0.0000000000000000e+00  1.0418350974104397e-04 -1.0682959826940723e-04 0.0000000000000000e+00  -1.1050597635066706e-04 -3.1691234320765953e-04 0.0000000000000000e+00  -6.6763349818538433e-05 -1.6277659307279292e-03 0.0000000000000000e+00  8.8265797998289839e-05 -1.1612405040904708e-03 0.0000000000000000e+00  2.9652656645141548e-04 -1.1317686326535882e-03 0.0000000000000000e+00  1.2174314267688367e-04 -3.3515799464699746e-04 0.0000000000000000e+00  -1.8294206785087849e-04 -1.2308478798058876e-03 0.0000000000000000e+00  3.9804858946319047e-05 -8.1583188938721756e-04 0.0000000000000000e+00  3.6142570248902302e-04 -1.1272750695919566e-03 0.0000000000000000e+00  1.7440990063410854e-04 -1.2398883131531082e-03 0.0000000000000000e+00  6.6632972850695247e-05 -1.8448007165314667e-03 0.0000000000000000e+00  5.7958489552744983e-06 -1.7755921152867076e-03 0.0000000000000000e+00  4.3009530722587074e-05 -1.5224445105098594e-03 0.0000000000000000e+00  -1.8347774848405983e-06 -1.1398435181068296e-03 0.0000000000000000e+00  -3.6770168718619283e-04 3.1958703275133368e-05 0.0000000000000000e+00  1.1451421148471939e-05 4.8273817907496346e-05 0.0000000000000000e+00  -1.5162885900930859e-05 -1.7942782975118114e-04 0.0000000000000000e+00  6.8215367851797571e-06 -3.4082411707607219e-04 0.0000000000000000e+00  1.1164195565575930e-05 -7.4630159517857016e-04 0.0000000000000000e+00  -3.9129230704515805e-05 -1.4764364929746583e-03 0.0000000000000000e+00  1.3189109007214681e-05 -1.7365345843234831e-03 0.0000000000000000e+00  -5.4432816635107671e-05 -6.7955698632933862e-04 0.0000000000000000e+00  1.7634912277575683e-04 -9.8911523791871624e-04 0.0000000000000000e+00  3.9027111597044378e-04 -4.1354347248154574e-04 0.0000000000000000e+00  -1.2029629672437820e-05 -3.5071841865870604e-04 0.0000000000000000e+00  -3.8526794351696221e-04 -4.0869118943064227e-04 0.0000000000000000e+00  -2.9187272450588897e-06 -1.1006896679728593e-03 0.0000000000000000e+00  1.5164741726462420e-04 -4.5048350574957341e-04 0.0000000000000000e+00  2.3398058381387174e-04 -7.1939105078988488e-04 0.0000000000000000e+00  3.8297413223394543e-04 -6.8600656075913668e-04 0.0000000000000000e+00  -1.1239049048129643e-04 -9.6981096563682450e-05 0.0000000000000000e+00  2.0527890371353750e-04 1.5605136286598123e-04 0.0000000000000000e+00  -4.1864611828278114e-04 -7.4726278664867291e-04 0.0000000000000000e+00  2.1876364243850568e-04 -1.7551055846632029e-04 0.0000000000000000e+00  -3.8137954969924814e-04 -1.0261640073093989e-03 0.0000000000000000e+00  -3.1822132214821396e-04 -1.3161184266799592e-03 0.0000000000000000e+00  2.7161416394317982e-05 2.5160904884044549e-05 0.0000000000000000e+00  2.7052520192119724e-04 -1.4818572349048888e-03 0.0000000000000000e+00  -3.4829219677740789e-04 -6.7449501631218771e-04 0.0000000000000000e+00  -2.6039946686280365e-04 -1.4819461420194143e-03 0.0000000000000000e+00  3.5447280175552080e-04 -6.7759700186599049e-04 0.0000000000000000e+00  9.7088676460023647e-05 -1.6838427995502854e-03 0.0000000000000000e+00  3.0567610327479007e-05 -1.7175716753753368e-03 0.0000000000000000e+00  -1.0858728385957877e-04 9.8420405518166962e-05 0.0000000000000000e+00  -4.0021821170277525e-04 -5.7100386606526274e-04 0.0000000000000000e+00  -1.9034533940411838e-04 -3.9863230231100772e-04 0.0000000000000000e+00  -1.8860260712083232e-04 3.7739073556452066e-05 0.0000000000000000e+00  2.2151211841526288e-04 4.6149986545914075e-05 0.0000000000000000e+00  4.4668739600622556e-04 -1.3078031861864633e-03 0.0000000000000000e+00  -2.1839253354746994e-04 -1.7196431624071751e-04 0.0000000000000000e+00  1.1238534485179373e-04 9.6672395187475977e-05 0.0000000000000000e+00  2.4569398382166070e-04 -3.7160247193879545e-04 0.0000000000000000e+00  2.5529935414777072e-05 -1.8971503563329170e-04 0.0000000000000000e+00  -2.8857766710158690e-04 -6.9775658303169671e-04 0.0000000000000000e+00  -8.4500467911521670e-05 -1.8305316193229877e-03 0.0000000000000000e+00  -2.1358810696056006e-05 -1.7284537418991157e-03 0.0000000000000000e+00  -1.0468165306312767e-05 -1.8258344187110137e-03 0.0000000000000000e+00  -1.3823264022008093e-04 -1.7542132495782631e-04 0.0000000000000000e+00  -2.0469670161922244e-04 -1.0187034996334912e-03 0.0000000000000000e+00  -8.0520108013609377e-05 -1.6716103741840403e-03 0.0000000000000000e+00  3.1757728601663967e-04 -1.5960768250061705e-03 0.0000000000000000e+00  1.1165623345972211e-04 -1.6149408710363954e-03 0.0000000000000000e+00  1.7503436082326956e-04 -1.6442326593115392e-03 0.0000000000000000e+00  -1.2493880567760653e-04 -1.5862439379390454e-03 0.0000000000000000e+00  4.3517659367194861e-05 -1.6406413967947401e-03 0.0000000000000000e+00  -5.3510341010423604e-04 -2.7755062751352275e-04 0.0000000000000000e+00  5.9306428047642149e-05 -4.8696639422554828e-04 0.0000000000000000e+00  1.4449935150438460e-04 -1.9153846204255376e-04 0.0000000000000000e+00  -1.0016867949700579e-04 -1.1148640087136940e-03 0.0000000000000000e+00  5.3939256303621875e-04 -2.7548150887507972e-04 0.0000000000000000e+00  5.1871038523213799e-04 -1.0222280213732374e-03 0.0000000000000000e+00  -4.2887678165148683e-05 -1.2035281836057331e-04 0.0000000000000000e+00  4.1690073907040324e-04 -1.9909650242802831e-04 0.0000000000000000e+00  2.4886774622196096e-04 -1.3042301042171147e-03 0.0000000000000000e+00  1.4438232658657227e-04 -8.0460111751435800e-04 0.0000000000000000e+00  -6.1218141021047049e-05 3.8199325079709202e-05 0.0000000000000000e+00  -2.4264676075169914e-05 -1.7111978144608692e-03 0.0000000000000000e+00  -3.1880443089518147e-05 -1.5996658621139114e-03 0.0000000000000000e+00  1.2159150650252995e-04 -5.1891641959571518e-04 0.0000000000000000e+00  2.6988400579431577e-05 -1.9167505485737887e-03 0.0000000000000000e+00  -1.9553453891144712e-05 1.2377523923970355e-04 0.0000000000000000e+00  2.3044040929405761e-05 1.2686713341373805e-04 0.0000000000000000e+00  4.1390741233452929e-04 1.6787232720115835e-04 0.0000000000000000e+00  -4.0901027107597521e-04 1.6552163601457062e-04 0.0000000000000000e+00  -2.0647470326176247e-04 -2.7935390710470746e-04 0.0000000000000000e+00  2.4247967822215149e-04 -1.0229014772019005e-03 0.0000000000000000e+00  -9.0725019326686948e-05 -3.7560612421022789e-05 0.0000000000000000e+00  -1.0731463974038809e-04 -6.9831809886598353e-05 0.0000000000000000e+00  9.2519872086083970e-05 -3.8342369336756335e-05 0.0000000000000000e+00  1.0659005142306494e-04 -6.9062241701157268e-05 0.0000000000000000e+00  2.7739317076793427e-05 -2.0663944473696297e-03 0.0000000000000000e+00  -2.6549579170708628e-05 -2.0643272536872417e-03 0.0000000000000000e+00  -9.8309337170284880e-05 -1.6942732676499053e-03 0.0000000000000000e+00  1.4465207863035992e-05 -1.7336404084999128e-03 0.0000000000000000e+00  -5.1370107276092942e-04 7.9944860345825200e-05 0.0000000000000000e+00  -2.2864494773294295e-04 -7.9513738073553784e-04 0.0000000000000000e+00  -1.2810818235841462e-05 -9.2429806605261319e-04 0.0000000000000000e+00  3.1871628538734589e-04 -1.4744426063865833e-04 0.0000000000000000e+00  8.6356541232338946e-05 -1.1806450794652704e-03 0.0000000000000000e+00  -4.2012492412573586e-04 -2.3878523246548822e-04 0.0000000000000000e+00  -1.1778783245455341e-04 3.0934283588022557e-05 0.0000000000000000e+00  -1.5458021816363148e-04 -4.5544001902482793e-05 0.0000000000000000e+00  5.2224653792961576e-05 -1.7715696256502089e-03 0.0000000000000000e+00  8.7491354366698494e-05 4.0798633331891805e-05 0.0000000000000000e+00  -6.9478757044061108e-05 -6.8115016295429789e-04 0.0000000000000000e+00  4.0247961244683020e-04 -9.5506136514747497e-04 0.0000000000000000e+00  2.6220087106839170e-05 -9.8779082058799632e-04 0.0000000000000000e+00  -1.7961448949331642e-05 -1.3488387711482091e-03 0.0000000000000000e+00  -8.3304667506315874e-05 -1.0789768395917522e-03 0.0000000000000000e+00  -9.7611934608022563e-05 -1.3798940505529321e-03 0.0000000000000000e+00  5.5307261513439909e-04 -4.9315653727454508e-04 0.0000000000000000e+00  1.6886750933969911e-04 4.1186731638813995e-05 0.0000000000000000e+00  3.8051285599415734e-04 -5.4382184334594115e-04 0.0000000000000000e+00  1.0967465140378241e-05 -1.2518619616687611e-03 0.0000000000000000e+00  -1.5813876073569034e-04 -1.2435427917323791e-03 0.0000000000000000e+00  1.6482263954470172e-04 -1.1471878930617541e-03 0.0000000000000000e+00  -4.2491715712042536e-04 -4.8499620801371028e-05 0.0000000000000000e+00  8.5484490065757245e-05 -1.6763746489551390e-03 0.0000000000000000e+00  -1.9626975742027125e-04 -8.7810810732595070e-04 0.0000000000000000e+00  5.7397530694441496e-05 -1.6424461247416739e-03 0.0000000000000000e+00  4.2248224089876742e-04 -3.0419863198295608e-04 0.0000000000000000e+00  -5.4795433469694281e-04 -4.9335634873903713e-04 0.0000000000000000e+00  -2.8366728614347326e-04 -4.0014101784699273e-04 0.0000000000000000e+00  1.2264464305516821e-04 -1.3748651072264847e-03 0.0000000000000000e+00  2.2258818195151718e-04 -1.4094490077683295e-03 0.0000000000000000e+00  2.9698979846895775e-07 -1.7254881061857207e-03 0.0000000000000000e+00  3.4130650208970123e-06 -1.7655331955863012e-03 0.0000000000000000e+00  3.0907372704594009e-04 -1.3824640266451808e-03 0.0000000000000000e+00  1.6171936732215276e-04 -6.6893652515798431e-05 0.0000000000000000e+00  5.4991599623817127e-04 -7.4556996182051317e-04 0.0000000000000000e+00  8.5264068580433652e-05 -1.5657832060503110e-03 0.0000000000000000e+00  1.9063904787912798e-04 -5.7122335154305404e-04 0.0000000000000000e+00  5.1884409299899964e-04 8.1767868846166744e-05 0.0000000000000000e+00  -2.2130438311641193e-04 -1.4088705719759790e-03 0.0000000000000000e+00  -1.2385303965800921e-04 -1.3492827478833430e-03 0.0000000000000000e+00  -8.3045748943434819e-05 -1.5603195854913109e-03 0.0000000000000000e+00  5.5066305985113309e-05 -1.4892509746875044e-04 0.0000000000000000e+00  7.4897421954210384e-06 -1.8732089050056831e-03 0.0000000000000000e+00  2.2142629952895764e-04 -5.7545701861270928e-04 0.0000000000000000e+00  -2.5471709393844546e-04 -1.0356650111112220e-03 0.0000000000000000e+00  -2.1409988913085668e-04 -1.3318870272546121e-03 0.0000000000000000e+00  -2.2774722179205202e-04 -1.4532530642895826e-03 0.00000000