<?xml version="1.0"?>
<VTKFile type="UnstructuredGrid"  version="0.1"  >
<UnstructuredGrid>
<Piece  NumberOfPoints="1695" NumberOfCells="3187">
<Points>
<DataArray  type="Float64"  NumberOfComponents="3"  format="ascii">1.925 0.45625 0  1.925 0.44375 0  1.975 0.44375 0  1.975 0.45625 0  1.925 0.35625 0  1.925 0.34375 0  1.975 0.34375 0  1.975 0.35625 0  1.925 0.25625 0  1.925 0.24375 0  1.975 0.24375 0  1.975 0.25625 0  1.925 0.15625 0  1.925 0.14375 0  1.975 0.14375 0  1.975 0.15625 0  1.925 0.05625 0  1.925 0.04375 0  1.975 0.04375 0  1.975 0.05625 0  1.825 0.45625 0  1.825 0.44375 0  1.875 0.44375 0  1.875 0.45625 0  1.825 0.35625 0  1.825 0.34375 0  1.875 0.34375 0  1.875 0.35625 0  1.825 0.25625 0  1.825 0.24375 0  1.875 0.24375 0  1.875 0.25625 0  1.825 0.15625 0  1.825 0.14375 0  1.875 0.14375 0  1.875 0.15625 0  1.825 0.05625 0  1.825 0.04375 0  1.875 0.04375 0  1.875 0.05625 0  1.725 0.45625 0  1.725 0.44375 0  1.775 0.44375 0  1.775 0.45625 0  1.725 0.35625 0  1.725 0.34375 0  1.775 0.34375 0  1.775 0.35625 0  1.725 0.25625 0  1.725 0.24375 0  1.775 0.24375 0  1.775 0.25625 0  1.725 0.15625 0  1.725 0.14375 0  1.775 0.14375 0  1.775 0.15625 0  1.725 0.05625 0  1.725 0.04375 0  1.775 0.04375 0  1.775 0.05625 0  1.625 0.45625 0  1.625 0.44375 0  1.675 0.44375 0  1.675 0.45625 0  1.625 0.35625 0  1.625 0.34375 0  1.675 0.34375 0  1.675 0.35625 0  1.625 0.25625 0  1.625 0.24375 0  1.675 0.24375 0  1.675 0.25625 0  1.625 0.15625 0  1.625 0.14375 0  1.675 0.14375 0  1.675 0.15625 0  1.625 0.05625 0  1.625 0.04375 0  1.675 0.04375 0  1.675 0.05625 0  1.525 0.45625 0  1.525 0.44375 0  1.575 0.44375 0  1.575 0.45625 0  1.525 0.35625 0  1.525 0.34375 0  1.575 0.34375 0  1.575 0.35625 0  1.525 0.25625 0  1.525 0.24375 0  1.575 0.24375 0  1.575 0.25625 0  1.525 0.15625 0  1.525 0.14375 0  1.575 0.14375 0  1.575 0.15625 0  1.525 0.05625 0  1.525 0.04375 0  1.575 0.04375 0  1.575 0.05625 0  1.425 0.45625 0  1.425 0.44375 0  1.475 0.44375 0  1.475 0.45625 0  1.425 0.35625 0  1.425 0.34375 0  1.475 0.34375 0  1.475 0.35625 0  1.425 0.25625 0  1.425 0.24375 0  1.475 0.24375 0  1.475 0.25625 0  1.425 0.15625 0  1.425 0.14375 0  1.475 0.14375 0  1.475 0.15625 0  1.425 0.05625 0  1.425 0.04375 0  1.475 0.04375 0  1.475 0.05625 0  1.325 0.45625 0  1.325 0.44375 0  1.375 0.44375 0  1.375 0.45625 0  1.325 0.35625 0  1.325 0.34375 0  1.375 0.34375 0  1.375 0.35625 0  1.325 0.25625 0  1.325 0.24375 0  1.375 0.24375 0  1.375 0.25625 0  1.325 0.15625 0  1.325 0.14375 0  1.375 0.14375 0  1.375 0.15625 0  1.325 0.05625 0  1.325 0.04375 0  1.375 0.04375 0  1.375 0.05625 0  1.225 0.45625 0  1.225 0.44375 0  1.275 0.44375 0  1.275 0.45625 0  1.225 0.35625 0  1.225 0.34375 0  1.275 0.34375 0  1.275 0.35625 0  1.225 0.25625 0  1.225 0.24375 0  1.275 0.24375 0  1.275 0.25625 0  1.225 0.15625 0  1.225 0.14375 0  1.275 0.14375 0  1.275 0.15625 0  1.225 0.05625 0  1.225 0.04375 0  1.275 0.04375 0  1.275 0.05625 0  1.125 0.45625 0  1.125 0.44375 0  1.175 0.44375 0  1.175 0.45625 0  1.125 0.35625 0  1.125 0.34375 0  1.175 0.34375 0  1.175 0.35625 0  1.125 0.25625 0  1.125 0.24375 0  1.175 0.24375 0  1.175 0.25625 0  1.125 0.15625 0  1.125 0.14375 0  1.175 0.14375 0  1.175 0.15625 0  1.125 0.05625 0  1.125 0.04375 0  1.175 0.04375 0  1.175 0.05625 0  1.025 0.45625 0  1.025 0.44375 0  1.075 0.44375 0  1.075 0.45625 0  1.025 0.35625 0  1.025 0.34375 0  1.075 0.34375 0  1.075 0.35625 0  1.025 0.25625 0  1.025 0.24375 0  1.075 0.24375 0  1.075 0.25625 0  1.025 0.15625 0  1.025 0.14375 0  1.075 0.14375 0  1.075 0.15625 0  1.025 0.05625 0  1.025 0.04375 0  1.075 0.04375 0  1.075 0.05625 0  0.9249999999999999 0.45625 0  0.9249999999999999 0.44375 0  0.975 0.44375 0  0.975 0.45625 0  0.9249999999999999 0.35625 0  0.9249999999999999 0.34375 0  0.975 0.34375 0  0.975 0.35625 0  0.9249999999999999 0.25625 0  0.9249999999999999 0.24375 0  0.975 0.24375 0  0.975 0.25625 0  0.9249999999999999 0.15625 0  0.9249999999999999 0.14375 0  0.975 0.14375 0  0.975 0.15625 0  0.9249999999999999 0.05625 0  0.9249999999999999 0.04375 0  0.975 0.04375 0  0.975 0.05625 0  0.825 0.45625 0  0.825 0.44375 0  0.875 0.44375 0  0.875 0.45625 0  0.825 0.35625 0  0.825 0.34375 0  0.875 0.34375 0  0.875 0.35625 0  0.825 0.25625 0  0.825 0.24375 0  0.875 0.24375 0  0.875 0.25625 0  0.825 0.15625 0  0.825 0.14375 0  0.875 0.14375 0  0.875 0.15625 0  0.825 0.05625 0  0.825 0.04375 0  0.875 0.04375 0  0.875 0.05625 0  0.725 0.45625 0  0.725 0.44375 0  0.775 0.44375 0  0.775 0.45625 0  0.725 0.35625 0  0.725 0.34375 0  0.775 0.34375 0  0.775 0.35625 0  0.725 0.25625 0  0.725 0.24375 0  0.775 0.24375 0  0.775 0.25625 0  0.725 0.15625 0  0.725 0.14375 0  0.775 0.14375 0  0.775 0.15625 0  0.725 0.05625 0  0.725 0.04375 0  0.775 0.04375 0  0.775 0.05625 0  0.625 0.45625 0  0.625 0.44375 0  0.675 0.44375 0  0.675 0.45625 0  0.625 0.35625 0  0.625 0.34375 0  0.675 0.34375 0  0.675 0.35625 0  0.625 0.25625 0  0.625 0.24375 0  0.675 0.24375 0  0.675 0.25625 0  0.625 0.15625 0  0.625 0.14375 0  0.675 0.14375 0  0.675 0.15625 0  0.625 0.05625 0  0.625 0.04375 0  0.675 0.04375 0  0.675 0.05625 0  0.525 0.45625 0  0.525 0.44375 0  0.5750000000000001 0.44375 0  0.5750000000000001 0.45625 0  0.525 0.35625 0  0.525 0.34375 0  0.5750000000000001 0.34375 0  0.5750000000000001 0.35625 0  0.525 0.25625 0  0.525 0.24375 0  0.5750000000000001 0.24375 0  0.5750000000000001 0.25625 0  0.525 0.15625 0  0.525 0.14375 0  0.5750000000000001 0.14375 0  0.5750000000000001 0.15625 0  0.525 0.05625 0  0.525 0.04375 0  0.5750000000000001 0.04375 0  0.5750000000000001 0.05625 0  0.425 0.45625 0  0.425 0.44375 0  0.475 0.44375 0  0.475 0.45625 0  0.425 0.35625 0  0.425 0.34375 0  0.475 0.34375 0  0.475 0.35625 0  0.425 0.25625 0  0.425 0.24375 0  0.475 0.24375 0  0.475 0.25625 0  0.425 0.15625 0  0.425 0.14375 0  0.475 0.14375 0  0.475 0.15625 0  0.425 0.05625 0  0.425 0.04375 0  0.475 0.04375 0  0.475 0.05625 0  0.325 0.45625 0  0.325 0.44375 0  0.375 0.44375 0  0.375 0.45625 0  0.325 0.35625 0  0.325 0.34375 0  0.375 0.34375 0  0.375 0.35625 0  0.325 0.25625 0  0.325 0.24375 0  0.375 0.24375 0  0.375 0.25625 0  0.325 0.15625 0  0.325 0.14375 0  0.375 0.14375 0  0.375 0.15625 0  0.325 0.05625 0  0.325 0.04375 0  0.375 0.04375 0  0.375 0.05625 0  0.225 0.45625 0  0.225 0.44375 0  0.275 0.44375 0  0.275 0.45625 0  0.225 0.35625 0  0.225 0.34375 0  0.275 0.34375 0  0.275 0.35625 0  0.225 0.25625 0  0.225 0.24375 0  0.275 0.24375 0  0.275 0.25625 0  0.225 0.15625 0  0.225 0.14375 0  0.275 0.14375 0  0.275 0.15625 0  0.225 0.05625 0  0.225 0.04375 0  0.275 0.04375 0  0.275 0.05625 0  0.125 0.45625 0  0.125 0.44375 0  0.175 0.44375 0  0.175 0.45625 0  0.125 0.35625 0  0.125 0.34375 0  0.175 0.34375 0  0.175 0.35625 0  0.125 0.25625 0  0.125 0.24375 0  0.175 0.24375 0  0.175 0.25625 0  0.125 0.15625 0  0.125 0.14375 0  0.175 0.14375 0  0.175 0.15625 0  0.125 0.05625 0  0.125 0.04375 0  0.175 0.04375 0  0.175 0.05625 0  0.025 0.45625 0  0.025 0.44375 0  0.07500000000000001 0.44375 0  0.07500000000000001 0.45625 0  0.025 0.35625 0  0.025 0.34375 0  0.07500000000000001 0.34375 0  0.07500000000000001 0.35625 0  0.025 0.25625 0  0.025 0.24375 0  0.07500000000000001 0.24375 0  0.07500000000000001 0.25625 0  0.025 0.15625 0  0.025 0.14375 0  0.07500000000000001 0.14375 0  0.07500000000000001 0.15625 0  0.025 0.05625 0  0.025 0.04375 0  0.07500000000000001 0.04375 0  0.07500000000000001 0.05625 0  1.65 -0.05 0  1.65 -0.1 0  1.85 -0.1 0  1.85 -0.05 0  1.864644660940673 -0.01464466094067262 0  1.9 0 0  2 0 0  2 0.5 0  1.15 0.5 0  1.114644660940673 0.5146446609406726 0  1.1 0.55 0  1.1 0.6 0  0.9 0.6 0  0.9 0.55 0  0.8853553390593274 0.5146446609406726 0  0.85 0.5 0  0 0.5 0  0 0 0  0.1 0 0  0.1353553390593274 -0.01464466094067263 0  0.15 -0.05 0  0.15 -0.1 0  0.35 -0.1 0  0.35 -0.05 0  0.3646446609406726 -0.01464466094067262 0  0.4 0 0  1.6 0 0  1.635355339059327 -0.01464466094067263 0  0 0.25 0  2 0.25 0  0.425 0.5 0  1.575 0.5 0  1 0 0  0 0.125 0  0 0.375 0  2 0.125 0  2 0.375 0  0.6375 0.5 0  0.2125 0.5 0  1.7875 0.5 0  1.3625 0.5 0  1.3 0 0  0.7 0 0  0 0.0625 0  0 0.1875 0  0 0.4375 0  0 0.3125 0  2 0.0625 0  2 0.1875 0  2 0.4375 0  2 0.3125 0  0.7437499999999999 0.5 0  0.53125 0.5 0  0.10625 0.5 0  0.31875 0.5 0  1.89375 0.5 0  1.68125 0.5 0  1.25625 0.5 0  1.46875 0.5 0  1.45 0 0  1.15 0 0  0.55 0 0  0.85 0 0  0 0.03125 0  0 0.15625 0  0 0.46875 0  0 0.34375 0  2 0.03125 0  2 0.15625 0  2 0.46875 0  2 0.34375 0  0.796875 0.5 0  0.6906249999999999 0.5 0  0.478125 0.5 0  0.584375 0.5 0  0.053125 0.5 0  0.159375 0.5 0  0.371875 0.5 0  0.265625 0.5 0  1.946875 0.5 0  1.840625 0.5 0  1.628125 0.5 0  1.734375 0.5 0  1.203125 0.5 0  1.309375 0.5 0  1.521875 0.5 0  1.415625 0.5 0  1.525 0 0  1.375 0 0  1.075 0 0  1.225 0 0  0.475 0 0  0.625 0 0  0.925 0 0  0.7749999999999999 0 0  1.75 -0.1 0  1 0.6 0  0.25 -0.1 0  1 0.5259510869565217 0  0.2779017857142857 -0.03080357142857143 0  1.777901785714286 -0.03080357142857144 0  1.711202019110897 -0.02208661528871769 0  0.211202019110897 -0.0220866152887176 0  1.05 0.6 0  0.95 0.6 0  1.047668862207724 0.5476688622077241 0  0.9436141896114225 0.5114221172297126 0  1.7 0.4 0  1.8 0.4 0  1.5 0.4 0  1.3 0.4 0  1.2 0.4 0  1.2 0.3 0  1.3 0.3 0  1.5 0.3 0  1.7 0.3 0  1.8 0.3 0  1 0.4 0  1.2 0.2 0  1.3 0.2 0  1.5 0.2 0  1.7 0.2 0  1.8 0.2 0  1.8 0.1 0  1.7 0.1 0  1.5 0.1 0  1.3 0.1 0  1.2 0.1 0  1 0.3 0  0.2 0.4 0  1.9 0.4 0  1.6 0.4 0  1.4 0.4 0  1.1 0.4 0  0.85 0.4 0  0.75 0.4 0  0.65 0.4 0  0.55 0.4 0  0.45 0.4 0  0.35 0.4 0  1 0.2 0  1 0.1 0  0.05 0.4 0  0.35 0.3 0  0.45 0.3 0  1.1 0.3 0  1.4 0.3 0  1.6 0.3 0  1.9 0.3 0  0.85 0.3 0  0.75 0.3 0  0.65 0.3 0  0.55 0.3 0  0.05 0.3 0  0.2 0.3 0  1.1 0.2 0  1.4 0.2 0  1.6 0.2 0  1.9 0.2 0  1.9 0.1 0  1.6 0.1 0  1.4 0.1 0  1.1 0.1 0  0.85 0.2 0  0.85 0.1 0  0.75 0.2 0  0.75 0.1 0  0.65 0.2 0  0.65 0.1 0  0.55 0.2 0  0.55 0.1 0  0.45 0.2 0  0.45 0.1 0  0.35 0.2 0  0.35 0.1 0  0.2 0.2 0  0.2 0.1 0  0.05 0.2 0  0.05 0.1 0  1.95 0 0  1.8 -0.1 0  1.7 -0.1
[...]
<CellData  Scalars="f">
<DataArray  type="Float64"  Name="f"  format="ascii">0 100 100 0 0 0 99 95 0 0 100 99 0 0 98 94 0 0 0 98 0 0 97 0 0 0 0 0 0 96 0 0 0 0 96 0 94 93 0 0 95 0 0 0 90 99 0 0 94 0 92 0 0 0 0 0 0 89 91 0 0 0 0 0 0 0 0 0 0 0 0 0 0 88 35 0 0 90 0 0 0 87 85 0 0 0 0 0 0 0 0 0 0 0 0 0 84 86 0 0 0 0 0 0 0 0 0 0 0 0 0 0 0 83 0 0 85 0 0 82 80 0 0 0 0 0 0 0 0 0 0 0 0 0 79 81 0 0 0 0 0 0 0 0 0 0 81 0 0 0 0 78 0 0 0 80 0 0 0 77 75 0 0 0 0 0 0 0 0 0 0 0 0 0 74 76 0 0 0 0 0 0 0 0 0 0 76 0 0 0 0 73 0 0 75 0 0 0 72 70 0 0 0 0 0 0 0 0 0 0 0 0 0 69 71 0 0 0 0 0 0 0 0 0 0 0 0 0 0 68 0 0 0 70 0 0 67 65 0 0 0 0 0 0 0 0 0 0 0 0 64 66 0 0 0 0 0 0 0 0 0 66 0 0 0 0 63 0 0 65 0 0 62 60 0 0 0 0 0 0 0 0 0 0 0 0 0 59 61 0 61 0 0 0 0 0 0 0 61 0 0 0 0 58 0 0 0 60 0 0 0 57 55 0 0 0 0 0 0 0 0 0 0 0 0 0 54 56 0 0 0 0 0 0 0 0 0 0 0 0 0 0 53 0 0 0 55 0 0 0 52 50 0 0 0 0 0 0 0 0 0 0 0 0 49 51 0 0 0 0 0 0 0 0 0 0 51 0 0 0 0 48 0 0 0 50 0 0 0 47 45 0 0 0 0 0 0 50 0 0 0 0 0 44 46 0 0 0 0 0 46 0 0 0 46 0 0 0 0 43 0 0 0 0 0 42 40 0 0 0 0 0 0 0 0 0 0 0 0 0 39 41 0 0 0 0 0 0 0 0 0 0 0 0 0 0 38 0 0 0 40 0 0 0 37 35 0 0 0 0 0 0 0 0 0 0 0 0 0 34 36 0 0 36 0 0 0 0 0 0 36 0 0 0 40 33 0 0 0 35 0 0 32 30 0 0 0 0 0 0 0 0 0 0 0 0 0 29 31 0 0 31 0 0 0 0 0 0 31 0 0 0 35 28 0 0 0 30 0 0 27 25 0 0 0 0 0 0 0 0 0 0 0 0 24 26 0 0 0 0 0 0 0 0 0 0 0 0 0 30 23 0 0 25 0 0 0 22 20 0 0 0 0 0 0 0 0 0 0 0 0 0 19 21 0 0 21 0 0 0 0 0 0 0 21 0 0 0 25 18 0 0 20 0 0 17 15 0 0 0 0 0 0 0 0 0 0 0 0 0 0 16 0 0 0 0 0 0 0 0 0 0 0 0 0 0 20 13 0 15 15 0 0 0 10 0 0 0 14 0 0 12 0 0 0 0 0 0 9 11 0 0 0 0 0 0 0 0 0 0 0 0 0 0 0 8 0 0 0 10 0 0 0 7 5 0 0 0 0 0 0 10 0 0 0 0 0 4 6 0 0 0 0 0 6 0 0 0 0 6 0 0 0 0 3 0 5 5 0 0 0 2 0 0 0 0 4 0 2 0 0 0 3 0 0 0 1 0 0 0 0 0 0 0 0 0 0 0 0 0 0 0 0 0 15 0 0 50 0 0 0 0 0 0 0 0 0 0 0 0 0 0 0 70 0 0 0 0 0 95 65 0 2 0 0 0 98 40 0 5 0 0 0 0 0 0 0 0 0 0 0 0 0 10 0 100 90 0 0 0 0 0 0 0 0 0 0 0 0 0 0 0 0 0 0 0 0 0 0 0 0 0 0 0 0 0 0 75 0 65 0 60 0 0 0 0 0 0 0 0 0 0 0 0 0 0 0 0 0 0 0 0 0 0 0 0 0 0 0 0 76 0 66 0 0 0 0 0 0 0 0 0 0 0 0 0 0 0 0 0 0 0 0 0 0 0 0 0 0 0 0 51 0 4 0 0 0 0 0 0 0 0 0 0 0 0 0 0 0 0 0 0 0 0 0 0 4 0 0 0 0 0 0 0 0 0 0 0 0 0 0 0 0 0 0 0 0 0 0 0 0 0 0 0 0 0 0 0 0 0 0 0 0 0 0 0 0 0 0 0 0 0 0 0 3 0 0 96 0 0 0 90 0 0 0 0 0 0 85 0 0 0 0 0 0 0 0 0 0 0 0 0 0 0 0 0 0 0 0 0 0 0 0 0 0 0 0 81 0 0 0 0 0 0 0 0 0 0 0 0 0 0 0 0 0 0 0 0 0 0 0 0 0 0 0 0 0 0 0 0 0 0 0 0 0 0 0 0 0 0 0 0 0 0 0 0 0 0 0 0 0 0 0 0 0 0 0 0 0 0 0 0 0 0 0 0 95 0 0 0 80 0 70 0 55 0 0 0 0 0 0 0 0 0 0 0 0 0 0 0 0 0 0 0 0 0 0 0 0 0 0 0 0 0 0 0 0 0 0 0 0 0 0 0 0 0 0 0 0 0 0 0 0 0 0 0 0 0 0 0 0 0 0 0 0 0 0 0 0 0 0 0 0 0 0 0 0 0 0 6 0 81 0 0 0 0 0 0 0 0 0 0 0 0 0 0 21 0 76 0 0 66 0 0 51 0 61 0 31 0 0 46 0 36 0 0 0 0 0 0 0 0 0 0 0 0 0 0 0 0 0 0 0 0 0 0 0 0 0 0 0 0 25 0 0 0 0 0 0 0 80 0 0 0 0 0 0 0 0 0 0 0 0 0 0 0 20 0 0 0 0 0 0 0 85 0 0 0 0 0 0 0 0 0 0 0 0 0 0 0 0 0 0 0 0 0 0 0 0 0 0 0 0 0 0 0 0 0 30 0 0 0 0 0 75 0 0 0 0 0 0 0 0 0 0 0 0 0 0 0 0 0 0 0 0 0 0 0 0 0 0 0 0 0 0 0 0 0 0 0 0 0 0 0 0 0 0 0 0 0 0 0 0 0 0 0 0 0 0 0 0 0 0 0 0 0 0 0 0 0 0 0 0 0 0 0 0 0 0 0 0 0 0 0 0 0 0 0 0 0 0 0 0 0 0 0 0 0 0 0 0 0 0 0 0 0 0 0 0 0 0 0 0 0 0 2 0 0 0 0 0 0 0 99 0 0 0 0 0 0 0 0 0 0 0 0 0 0 0 0 0 0 0 0 0 0 0 0 0 0 0 0 0 0 0 0 0 0 0 0 0 0 0 0 0 0 0 0 0 0 0 0 0 0 0 0 0 3 0 0 0 0 0 0 0 60 0 0 0 0 0 98 0 0 0 0 0 0 96 0 0 0 0 0 0 0 0 0 0 0 0 0 0 0 0 0 0 0 0 0 0 0 0 0 0 0 55 0 0 0 0 0 0 0 0 0 0 0 0 0 0 94 0 0 0 0 0 0 0 0 0 0 0 0 0 0 0 0 0 0 0 0 0 0 0 0 0 0 0 0 0 0 0 0 0 0 0 0 0 0 0 0 0 0 0 0 0 0 0 0 0 0 0 0 0 0 0 0 0 0 0 0 0 0 0 0 0 0 0 0 0 0 0 0 0 0 0 0 0 0 0 0 0 0 0 0 0 0 17 17 17 0 22 22 22 0 27 27 27 0 32 32 32 0 37 37 37 0 42 42 42 0 47 47 47 0 0 0 0 0 0 0 0 0 16 16 16 0 18 18 18 0 23 23 23 0 26 26 26 0 28 28 28 0 33 33 33 0 38 38 38 0 41 41 41 0 43 43 43 0 48 48 48 0 0 0 0 0 0 0 0 0 0 0 19 19 19 0 24 24 24 0 29 29 29 0 34 34 34 0 39 39 39 0 44 44 44 0 45 45 45 0 49 49 49 0 0 0 0 0 0 0 0 0 0 0 12 12 12 0 0 0 0 0 0 0 11 11 11 0 13 13 13 0 1 1 1 0 0 0 14 14 14 0 0 0 0 0 0 0 7 7 7 0 0 0 0 0 0 0 0 0 8 8 8 0 0 0 0 0 0 0 0 0 9 9 9 0 0 0 0 0 0 0 0 0 0 0 0 0 0 0 0 0 0 0 0 0 0 0 0 0 0 0 0 0 0 0 0 0 0 0 0 0 0 0 0 0 0 0 0 0 0 0 52 52 52 0 56 56 56 0 57 57 57 0 62 62 62 0 67 67 67 0 71 71 71 0 72 72 72 0 77 77 77 0 82 82 82 0 86 86 86 0 87 87 87 0 91 91 91 0 92 92 92 0 97 97 97 0 53 53 53 0 58 58 58 0 63 63 63 0 68 68 68 0 73 73 73 0 78 78 78 0 83 83 83 0 88 88 88 0 93 93 93 0 54 54 54 0 59 59 59 0 64 64 64 0 69 69 69 0 74 74 74 0 79 79 79 0 84 84 84 0 89 89 89 0 0 0 0 0 0 0 0 0 0 0 0 0 0 0 0 0 0 0 0 0 0 0 0 0 0 0 0 0 0 0 0 0 0 0 0 0 0 0 0 0 0 0 0 0 0 0 0 0 0 0 0 0 0 0 0 0 0 0 0 0 0 0 0 0 0 0 0 0 0 0 0 0 0 0 0 0 0 0 0 0 0 0 0 0 0 0 0 0 0 0 0 0 0 0 0 0 0 0 0 0 0 0 0 0 0 0 0 0 0 0 0 0 0 0 0 0 0 0 0 0 0 0 0 0 0 0 0 0 0 0 0 0 0 0 0 0 0 0 0 0 0 0 0 0 0 0 0 0 0 0 0 0 0 0 0 0 0 0 0 0 0 0 0 0 0 0 0 0 0 0 0 0 0 0 0 0 0 0 0 0 0 0 0 0 0 0 0 0 0 0 0 0 0 0 0 0 0 0 0 0 0 0 0 0 0 0 0 0 0 0 0 0 0 0 0 0 0 0 0 0 0 0 0 0 0 0 0 0 0 0 0 0 0 0 0 0 0 0 0 0 0 0 0 0 0 0 0 0 0 0 0 0 0 0 0 0 0 0 0 0 0 0 0 0 0 0 0 0 0 0 0 0 0 0 0 0 0 0 0 0 0 0 0 0 0 0 0 0 0 0 0 0 0 0 0 0 0 0 0 0 0 0 0 0 0 0 0 0 0 0 0 0 0 0 0 0 0 0 0 0 0 0 0 0 0 0 0 0 0 0 0 0 0 0 0 0 0 0 0 0 0 0 0 0 0 0 0 0 0 0 0 0 0 0 0 0 0 0 0 0 0 0 0 0 0 0 0 0 0 0 0 0 0 0 0 0 0 0 0 0 0 0 0 0 0 0 0 0 0 0 0 0 0 0 0 0 0 0 0 0 0 0 0 0 0 0 0 0 0 0 0 0 0 0 0 0 0 0 0 0 0 0 0 0 0 0 0 0 0 0 0 0 0 0 0 0 0 0 0 0 0 0 0 0 0 0 0 0 0 0 0 0 0 0 0 0 0 0 0 0 0 0 0 0 0 0 0 0 0 0 0 0 0 0 0 0 0 0 0 0 0 0 0 0 0 0 0 0 0 0 0 0 0 0 0 0 0 0 0 0 0 0 0 0 0 0 0 0 0 0 0 0 0 0 0 0 0 0 0 0 0 0 0 0 0 0 0 0 0 0 0 0 0 0 0 0 0 0 0 0 0 0 0 0 0 0 0 0 0 0 0 0 0 0 0 0 0 0 0 0 0 0 0 0 0 0 0 0 0 0 0 0 0 0 0 0 0 0 0 0 0 0 0 0 0 0 0 0 0 0 0 0 0 0 0 0 0 0 0 0 0 0 0 0 0 0 0 0 0 0 0 0 0 0 0 0 0 0 0 0 0 0 0 0 0 0 0 0 0 0 0 0 0 0 0 0 0 0 0 0 0 0 0 0 0 0 0 0 0 0 0 0 0 0 0 0 0 0 0 0 0 0 0 0 0 0 0 0 0 0 0 0 0 0 0 0 0 0 0 0 0 0 0 0 0 0 0 0 0 0 0 0 0 0 0 0 0 0 0 0 0 0 0 0 0 0 0 0 0 0 0 0 0 0 0 0 0 0 0 0 0 0 0 0 0 0 0 0 0 0 0 0 0 0 0 0 0 0 0 0 0 0 0 0 0 0 0 0 0 0 0 0 0 0 0 0 0 0 0 0 0 0 0 0 0 0 0 0 0 0 0 0 0 0 0 0 0 0 0 0 0 0 0 0 0 0 0 0 0 0 0 0 0 0 0 0 0 0 0 0 0 0 0 0 0 0 0 0 0 0 0 0 0 0 0 0 0 0 0 0 0 0 0 0 0 0 0 0 0 0 0 0 0 0 0 0 0 0 0 0 0 0 0 0 0 0 0 0 0 0 0 0 0 0 0 0 0 0 0 0 0 0 0 0 0 0 0 0 0 0 0 0 0 0 0 0 0 0 0 0 0 0 0 0 0 0 0 0 0 0 0 0 0 0 0 0 0 0 0 0 0 0 0 0 0 0 0 0 0 0 0 0 0 0 0 0 0 0 0 0 0 0 0 0 0 0 0 0 0 0 0 0 0 0 0 0 0 0 0 0 0 0 0 0 0 0 0 0 0 0 0 0 0 0 0 0 0 0 0 0 0 0 0 0 0 0 0 0 0 0 0 0 0 0 0 0 0 0 0 0 0 0 0 0 0 0 0 0 0 0 0 0 0 0 0 0 0 0 0 0 0 0 0 0 0 0 0 0 0 0 0 0 0 0 0 0 0 0 0 0 0 0 0 0 0 0 0 0 0 0 0 0 0 0 0 0 0 0 0 0 0 0 0 0 0 0 0 0 0 0 0 0 0 0 0 0 0 0 0 0 0 0 0 0 0 0 0 0 0 0 0 0 0 0 0 0 0 0 0 0 0 0 0 0 0 0 0 0 0 0 0 0 0 0 0 0 0 0 0 0 0 0 0 0 0 0 0 0 0 0 0 0 0 0 0 0 0 0 0 0 0 0 0 0 0 0 0 0 0 0 0 0 0 0 0 0 0 0 0 0 0 0 0 0 0 0 0 0 0 0 0 0 0 0 0 0 0 0 0 0 0 0 0 0 0 0 0 0 0 0 0 0 0 0 0 0 0 0 0 0 0 0 0 0 0 0 0 0 0 </DataArray>
</CellData>
</Piece>
</UnstructuredGrid>
</VTKFile>