<?xml version="1.0"?>
<VTKFile type="UnstructuredGrid"  version="0.1"  >
<UnstructuredGrid>
<Piece  NumberOfPoints="1617" NumberOfCells="3051">
<Points>
<DataArray  type="Float64"  NumberOfComponents="3"  format="ascii">1.925 0.4625 0  1.925 0.4375 0  1.975 0.4375 0  1.975 0.4625 0  1.925 0.3625 0  1.925 0.3375 0  1.975 0.3375 0  1.975 0.3625 0  1.925 0.2625 0  1.925 0.2375 0  1.975 0.2375 0  1.975 0.2625 0  1.925 0.1625 0  1.925 0.1375 0  1.975 0.1375 0  1.975 0.1625 0  1.925 0.0625 0  1.925 0.03750000000000001 0  1.975 0.03750000000000001 0  1.975 0.0625 0  1.825 0.4625 0  1.825 0.4375 0  1.875 0.4375 0  1.875 0.4625 0  1.825 0.3625 0  1.825 0.3375 0  1.875 0.3375 0  1.875 0.3625 0  1.825 0.2625 0  1.825 0.2375 0  1.875 0.2375 0  1.875 0.2625 0  1.825 0.1625 0  1.825 0.1375 0  1.875 0.1375 0  1.875 0.1625 0  1.825 0.0625 0  1.825 0.03750000000000001 0  1.875 0.03750000000000001 0  1.875 0.0625 0  1.725 0.4625 0  1.725 0.4375 0  1.775 0.4375 0  1.775 0.4625 0  1.725 0.3625 0  1.725 0.3375 0  1.775 0.3375 0  1.775 0.3625 0  1.725 0.2625 0  1.725 0.2375 0  1.775 0.2375 0  1.775 0.2625 0  1.725 0.1625 0  1.725 0.1375 0  1.775 0.1375 0  1.775 0.1625 0  1.725 0.0625 0  1.725 0.03750000000000001 0  1.775 0.03750000000000001 0  1.775 0.0625 0  1.625 0.4625 0  1.625 0.4375 0  1.675 0.4375 0  1.675 0.4625 0  1.625 0.3625 0  1.625 0.3375 0  1.675 0.3375 0  1.675 0.3625 0  1.625 0.2625 0  1.625 0.2375 0  1.675 0.2375 0  1.675 0.2625 0  1.625 0.1625 0  1.625 0.1375 0  1.675 0.1375 0  1.675 0.1625 0  1.625 0.0625 0  1.625 0.03750000000000001 0  1.675 0.03750000000000001 0  1.675 0.0625 0  1.525 0.4625 0  1.525 0.4375 0  1.575 0.4375 0  1.575 0.4625 0  1.525 0.3625 0  1.525 0.3375 0  1.575 0.3375 0  1.575 0.3625 0  1.525 0.2625 0  1.525 0.2375 0  1.575 0.2375 0  1.575 0.2625 0  1.525 0.1625 0  1.525 0.1375 0  1.575 0.1375 0  1.575 0.1625 0  1.525 0.0625 0  1.525 0.03750000000000001 0  1.575 0.03750000000000001 0  1.575 0.0625 0  1.425 0.4625 0  1.425 0.4375 0  1.475 0.4375 0  1.475 0.4625 0  1.425 0.3625 0  1.425 0.3375 0  1.475 0.3375 0  1.475 0.3625 0  1.425 0.2625 0  1.425 0.2375 0  1.475 0.2375 0  1.475 0.2625 0  1.425 0.1625 0  1.425 0.1375 0  1.475 0.1375 0  1.475 0.1625 0  1.425 0.0625 0  1.425 0.03750000000000001 0  1.475 0.03750000000000001 0  1.475 0.0625 0  1.325 0.4625 0  1.325 0.4375 0  1.375 0.4375 0  1.375 0.4625 0  1.325 0.3625 0  1.325 0.3375 0  1.375 0.3375 0  1.375 0.3625 0  1.325 0.2625 0  1.325 0.2375 0  1.375 0.2375 0  1.375 0.2625 0  1.325 0.1625 0  1.325 0.1375 0  1.375 0.1375 0  1.375 0.1625 0  1.325 0.0625 0  1.325 0.03750000000000001 0  1.375 0.03750000000000001 0  1.375 0.0625 0  1.225 0.4625 0  1.225 0.4375 0  1.275 0.4375 0  1.275 0.4625 0  1.225 0.3625 0  1.225 0.3375 0  1.275 0.3375 0  1.275 0.3625 0  1.225 0.2625 0  1.225 0.2375 0  1.275 0.2375 0  1.275 0.2625 0  1.225 0.1625 0  1.225 0.1375 0  1.275 0.1375 0  1.275 0.1625 0  1.225 0.0625 0  1.225 0.03750000000000001 0  1.275 0.03750000000000001 0  1.275 0.0625 0  1.125 0.4625 0  1.125 0.4375 0  1.175 0.4375 0  1.175 0.4625 0  1.125 0.3625 0  1.125 0.3375 0  1.175 0.3375 0  1.175 0.3625 0  1.125 0.2625 0  1.125 0.2375 0  1.175 0.2375 0  1.175 0.2625 0  1.125 0.1625 0  1.125 0.1375 0  1.175 0.1375 0  1.175 0.1625 0  1.125 0.0625 0  1.125 0.03750000000000001 0  1.175 0.03750000000000001 0  1.175 0.0625 0  1.025 0.4625 0  1.025 0.4375 0  1.075 0.4375 0  1.075 0.4625 0  1.025 0.3625 0  1.025 0.3375 0  1.075 0.3375 0  1.075 0.3625 0  1.025 0.2625 0  1.025 0.2375 0  1.075 0.2375 0  1.075 0.2625 0  1.025 0.1625 0  1.025 0.1375 0  1.075 0.1375 0  1.075 0.1625 0  1.025 0.0625 0  1.025 0.03750000000000001 0  1.075 0.03750000000000001 0  1.075 0.0625 0  0.9249999999999999 0.4625 0  0.9249999999999999 0.4375 0  0.975 0.4375 0  0.975 0.4625 0  0.9249999999999999 0.3625 0  0.9249999999999999 0.3375 0  0.975 0.3375 0  0.975 0.3625 0  0.9249999999999999 0.2625 0  0.9249999999999999 0.2375 0  0.975 0.2375 0  0.975 0.2625 0  0.9249999999999999 0.1625 0  0.9249999999999999 0.1375 0  0.975 0.1375 0  0.975 0.1625 0  0.9249999999999999 0.0625 0  0.9249999999999999 0.03750000000000001 0  0.975 0.03750000000000001 0  0.975 0.0625 0  0.825 0.4625 0  0.825 0.4375 0  0.875 0.4375 0  0.875 0.4625 0  0.825 0.3625 0  0.825 0.3375 0  0.875 0.3375 0  0.875 0.3625 0  0.825 0.2625 0  0.825 0.2375 0  0.875 0.2375 0  0.875 0.2625 0  0.825 0.1625 0  0.825 0.1375 0  0.875 0.1375 0  0.875 0.1625 0  0.825 0.0625 0  0.825 0.03750000000000001 0  0.875 0.03750000000000001 0  0.875 0.0625 0  0.725 0.4625 0  0.725 0.4375 0  0.775 0.4375 0  0.775 0.4625 0  0.725 0.3625 0  0.725 0.3375 0  0.775 0.3375 0  0.775 0.3625 0  0.725 0.2625 0  0.725 0.2375 0  0.775 0.2375 0  0.775 0.2625 0  0.725 0.1625 0  0.725 0.1375 0  0.775 0.1375 0  0.775 0.1625 0  0.725 0.0625 0  0.725 0.03750000000000001 0  0.775 0.03750000000000001 0  0.775 0.0625 0  0.625 0.4625 0  0.625 0.4375 0  0.675 0.4375 0  0.675 0.4625 0  0.625 0.3625 0  0.625 0.3375 0  0.675 0.3375 0  0.675 0.3625 0  0.625 0.2625 0  0.625 0.2375 0  0.675 0.2375 0  0.675 0.2625 0  0.625 0.1625 0  0.625 0.1375 0  0.675 0.1375 0  0.675 0.1625 0  0.625 0.0625 0  0.625 0.03750000000000001 0  0.675 0.03750000000000001 0  0.675 0.0625 0  0.525 0.4625 0  0.525 0.4375 0  0.5750000000000001 0.4375 0  0.5750000000000001 0.4625 0  0.525 0.3625 0  0.525 0.3375 0  0.5750000000000001 0.3375 0  0.5750000000000001 0.3625 0  0.525 0.2625 0  0.525 0.2375 0  0.5750000000000001 0.2375 0  0.5750000000000001 0.2625 0  0.525 0.1625 0  0.525 0.1375 0  0.5750000000000001 0.1375 0  0.5750000000000001 0.1625 0  0.525 0.0625 0  0.525 0.03750000000000001 0  0.5750000000000001 0.03750000000000001 0  0.5750000000000001 0.0625 0  0.425 0.4625 0  0.425 0.4375 0  0.475 0.4375 0  0.475 0.4625 0  0.425 0.3625 0  0.425 0.3375 0  0.475 0.3375 0  0.475 0.3625 0  0.425 0.2625 0  0.425 0.2375 0  0.475 0.2375 0  0.475 0.2625 0  0.425 0.1625 0  0.425 0.1375 0  0.475 0.1375 0  0.475 0.1625 0  0.425 0.0625 0  0.425 0.03750000000000001 0  0.475 0.03750000000000001 0  0.475 0.0625 0  0.325 0.4625 0  0.325 0.4375 0  0.375 0.4375 0  0.375 0.4625 0  0.325 0.3625 0  0.325 0.3375 0  0.375 0.3375 0  0.375 0.3625 0  0.325 0.2625 0  0.325 0.2375 0  0.375 0.2375 0  0.375 0.2625 0  0.325 0.1625 0  0.325 0.1375 0  0.375 0.1375 0  0.375 0.1625 0  0.325 0.0625 0  0.325 0.03750000000000001 0  0.375 0.03750000000000001 0  0.375 0.0625 0  0.225 0.4625 0  0.225 0.4375 0  0.275 0.4375 0  0.275 0.4625 0  0.225 0.3625 0  0.225 0.3375 0  0.275 0.3375 0  0.275 0.3625 0  0.225 0.2625 0  0.225 0.2375 0  0.275 0.2375 0  0.275 0.2625 0  0.225 0.1625 0  0.225 0.1375 0  0.275 0.1375 0  0.275 0.1625 0  0.225 0.0625 0  0.225 0.03750000000000001 0  0.275 0.03750000000000001 0  0.275 0.0625 0  0.125 0.4625 0  0.125 0.4375 0  0.175 0.4375 0  0.175 0.4625 0  0.125 0.3625 0  0.125 0.3375 0  0.175 0.3375 0  0.175 0.3625 0  0.125 0.2625 0  0.125 0.2375 0  0.175 0.2375 0  0.175 0.2625 0  0.125 0.1625 0  0.125 0.1375 0  0.175 0.1375 0  0.175 0.1625 0  0.125 0.0625 0  0.125 0.03750000000000001 0  0.175 0.03750000000000001 0  0.175 0.0625 0  0.025 0.4625 0  0.025 0.4375 0  0.07500000000000001 0.4375 0  0.07500000000000001 0.4625 0  0.025 0.3625 0  0.025 0.3375 0  0.07500000000000001 0.3375 0  0.07500000000000001 0.3625 0  0.025 0.2625 0  0.025 0.2375 0  0.07500000000000001 0.2375 0  0.07500000000000001 0.2625 0  0.025 0.1625 0  0.025 0.1375 0  0.07500000000000001 0.1375 0  0.07500000000000001 0.1625 0  0.025 0.0625 0  0.025 0.03750000000000001 0  0.07500000000000001 0.03750000000000001 0  0.07500000000000001 0.0625 0  1.65 -0.05 0  1.65 -0.1 0  1.95 -0.1 0  1.95 -0.05 0  1.964644660940673 -0.01464466094067262 0  2 0 0  2 0.5 0  1.2 0.5 0  1.164644660940673 0.5146446609406726 0  1.15 0.5499999999999999 0  1.15 0.6 0  0.85 0.6 0  0.85 0.55 0  0.8353553390593274 0.5146446609406726 0  0.8 0.5 0  1 0.5 0  0 0.5 0  0 0 0  0.03535533905932739 -0.01464466094067263 0  0.04999999999999999 -0.05 0  0.04999999999999999 -0.1 0  0.35 -0.1 0  0.35 -0.05 0  0.3646446609406727 -0.01464466094067262 0  0.4 0 0  1.6 0 0  1.635355339059327 -0.01464466094067263 0  2 0.25 0  1.8 -0.1 0  0.8765366864730179 0.5 0  0.2 -0.1 0  0 0.25 0  0.4 0.5 0  1 0.6 0  1.6 0.5 0  1 0 0  2 0.375 0  2 0.125 0  0.9382683432365089 0.5 0  0.838268343236509 0.5 0  0 0.125 0  0 0.375 0  0.6000000000000001 0.5 0  0.2 0.5 0  1.4 0.5 0  1.8 0.5 0  1.3 0 0  0.7 0 0  2 0.4375 0  2 0.3125 0  2 0.0625 0  2 0.1875 0  0 0.0625 0  0 0.1875 0  0 0.4375 0  0 0.3125 0  0.7000000000000001 0.5 0  0.5 0.5 0  0.1 0.5 0  0.3 0.5 0  1.3 0.5 0  1.5 0.5 0  1.9 0.5 0  1.7 0.5 0  1.45 0 0  1.15 0 0  0.55 0 0  0.85 0 0  2 0.46875 0  2 0.34375 0  2 0.03125 0  2 0.15625 0  0 0.03125 0  0 0.21875 0  0 0.15625 0  0 0.46875 0  0 0.28125 0  0 0.34375 0  0.75 0.5 0  0.6500000000000001 0.5 0  0.45 0.5 0  0.55 0.5 0  0.05 0.5 0  0.15 0.5 0  0.35 0.5 0  0.25 0.5 0  1.25 0.5 0  1.35 0.5 0  1.55 0.5 0  1.45 0.5 0  1.95 0.5 0  1.85 0.5 0  1.65 0.5 0  1.75 0.5 0  1.525 0 0  1.375 0 0  1.075 0 0  1.225 0 0  0.475 0 0  0.625 0 0  0.925 0 0  0.7749999999999999 0 0  1.075 0.6 0  1.875 -0.1 0  1.725 -0.1 0  0.275 -0.1 0  0.125 -0.1 0  0.925 0.6 0  0.25 -0.03125 0  0.1625 -0.03579545454545455 0  1.85 -0.03125 0  1.7625 -0.03579545454545455 0  1.0625 0.53125 0  0.9691341716182544 0.55 0  1.7 -0.0169642857142857 0  0.1033366890997352 -0.01982430494263018 0  0.9057886815224064 0.5475669777163904 0  1.112036335279094 0.5134989411628127 0  1.897713414634147 -0.05282012195121953 0  0.2977134146341464 -0.0528201219512195 0  1.804960892236385 -0.008707402823132791 0  0.2049608922363847 -0.008707402823132832 0  1.01665752126518 0.5448099574696401 0  1.917339046654921 -0.009467383746031326 0  0.3173390466549212 -0.009467383746031351 0  1.103055247562616 0.5608328713439231 0  1.804272303748862 -0.05445107198578146 0  0.2042723037488618 -0.05445107198578146 0  1.3 0.4 0  1.8 0.4 0  1.7 0.4 0  1.5 0.4 0  1.2 0.4 0  1.6875 -0.1 0  1.8 0.2 0  1.8 0.09999999999999999 0  1.7 0.2 0  1.7 0.09999999999999999 0  1.5 0.2 0  1.5 0.0999999999
[...]
<CellData  Scalars="f">
<DataArray  type="Float64"  Name="f"  format="ascii">0 0 0 100 0 0 0 0 99 95 0 0 0 0 0 0 98 94 0 0 0 0 97 0 0 0 0 0 0 96 0 0 0 96 0 0 93 0 0 0 0 0 0 0 90 0 0 0 0 0 0 92 0 0 0 0 0 0 89 91 0 0 0 0 0 0 0 0 0 0 0 0 0 0 0 88 0 0 0 0 0 0 0 87 85 0 0 0 0 0 0 0 0 0 0 0 0 0 84 86 0 0 0 0 0 0 0 0 0 0 0 0 0 0 83 0 0 0 0 0 0 0 82 80 0 0 0 0 0 0 0 0 0 0 0 0 0 79 81 0 0 0 0 0 0 0 0 0 0 81 0 0 0 0 78 0 0 0 0 0 0 77 75 0 0 0 0 0 0 0 0 0 0 0 0 74 76 0 0 0 0 0 0 0 0 0 0 0 0 0 0 0 73 0 0 0 0 0 0 72 70 0 0 0 0 0 0 0 0 0 0 0 0 69 71 0 0 0 0 0 0 0 0 0 0 0 0 0 0 0 68 0 0 0 0 0 0 0 67 65 0 0 0 0 0 0 0 0 0 0 0 0 64 66 0 0 0 0 0 0 0 0 0 0 0 0 0 0 63 0 0 0 0 0 0 62 60 0 0 0 0 0 0 0 0 0 0 0 0 59 61 0 0 0 0 0 0 0 0 0 0 0 0 0 0 58 0 0 0 0 0 0 0 57 55 0 0 0 0 0 0 0 0 0 0 0 0 0 54 56 0 0 0 0 0 0 0 0 0 0 0 0 0 0 53 0 0 0 0 0 0 0 52 50 0 0 0 0 0 0 0 0 0 0 0 0 0 49 51 0 0 0 0 0 0 0 0 0 0 0 0 0 0 0 48 0 0 0 0 0 0 0 47 45 0 0 0 0 0 0 0 0 0 0 0 0 44 46 0 0 0 0 0 0 0 0 0 0 0 0 0 0 43 0 0 0 0 0 0 42 40 0 0 0 0 0 0 0 0 0 0 0 0 39 41 0 0 0 0 0 0 0 0 0 0 0 0 0 0 38 0 0 0 0 0 0 0 37 35 0 0 0 0 0 0 0 0 0 0 0 0 0 34 36 0 0 0 0 0 0 0 0 0 0 0 0 0 0 33 0 0 0 0 0 0 32 30 0 0 0 0 0 0 0 0 0 0 0 0 0 29 31 0 0 0 0 0 0 0 0 0 0 0 0 0 0 0 28 0 0 0 0 0 0 27 25 0 0 0 0 0 0 0 0 0 0 0 0 0 24 26 0 0 0 0 0 0 0 0 0 0 0 0 0 0 0 23 0 0 0 0 0 0 0 22 20 0 0 0 0 0 0 0 0 0 0 0 0 0 19 21 0 0 0 0 0 0 0 0 0 0 0 0 0 0 18 0 0 0 0 0 0 17 15 0 0 0 0 0 0 0 0 0 0 0 0 0 16 0 0 0 0 0 0 0 0 0 0 16 0 0 0 0 0 0 0 0 0 0 0 10 0 0 0 14 0 0 12 0 0 0 13 0 0 9 11 0 0 0 0 0 0 0 0 0 0 0 0 0 0 0 8 0 0 0 0 0 0 7 5 0 0 0 0 0 0 0 0 0 0 0 0 0 0 6 0 0 0 0 0 0 0 1 0 0 0 0 0 0 0 0 0 0 0 0 0 0 0 0 0 0 0 4 0 0 2 0 0 3 0 0 0 1 0 0 0 0 0 0 0 0 0 0 1 0 0 0 0 0 0 0 96 0 0 0 0 0 0 0 0 0 0 0 0 0 0 0 16 0 0 0 0 0 0 0 0 0 0 0 0 0 0 0 0 0 0 0 0 0 0 0 0 0 0 0 0 0 0 0 0 0 0 0 0 0 0 0 0 0 0 0 0 0 0 0 0 0 0 0 0 0 0 0 0 0 0 0 0 0 0 0 0 0 0 0 0 0 0 0 0 0 0 0 0 0 0 0 0 0 0 0 0 0 0 0 0 0 0 0 0 0 0 0 0 0 0 0 0 0 0 0 0 0 0 0 0 0 0 0 0 0 0 0 0 0 0 0 0 0 0 0 0 0 0 0 0 0 0 0 0 0 0 0 0 0 0 0 0 0 0 0 0 0 0 0 0 0 0 0 0 0 0 0 0 0 0 0 0 0 0 0 0 0 0 0 0 0 0 0 0 0 0 0 0 0 0 0 0 0 0 0 0 0 0 0 0 0 0 0 0 0 0 0 0 0 0 0 0 0 0 0 0 0 0 0 0 0 0 0 0 0 0 0 0 0 0 0 0 16 0 0 0 0 0 0 0 0 0 0 0 0 0 0 0 0 0 0 0 0 0 0 0 0 0 0 0 0 0 0 0 0 0 0 0 0 0 0 0 0 0 0 0 0 1 0 0 0 0 0 0 0 0 0 0 0 0 0 0 0 0 0 0 0 0 0 0 0 0 0 0 0 0 0 0 0 0 0 0 0 0 0 0 0 0 0 0 0 0 0 0 0 0 0 0 0 0 0 0 0 0 0 0 0 0 0 0 0 0 0 0 0 0 0 0 0 0 0 0 0 0 0 0 0 0 0 0 0 0 0 0 0 0 0 0 0 0 0 96 0 0 0 0 0 0 0 0 0 0 0 0 0 0 0 0 0 0 0 0 0 0 0 0 0 0 0 0 0 0 0 0 0 0 0 0 0 0 0 0 0 0 0 0 0 0 0 0 0 0 0 0 0 0 0 0 0 0 0 0 0 0 0 0 0 0 0 0 0 0 0 0 0 0 0 0 0 0 0 0 0 0 0 0 0 0 0 0 0 0 0 0 0 0 0 0 0 0 0 0 0 0 0 0 0 0 0 0 0 0 0 0 0 0 0 0 0 0 0 0 0 0 0 0 0 0 0 0 0 0 0 0 0 0 0 0 0 0 0 0 0 0 0 0 0 0 0 0 0 0 0 0 0 0 0 0 0 0 0 0 0 0 0 0 0 0 0 0 0 0 0 0 0 0 0 0 0 0 0 0 0 0 0 0 0 0 0 0 0 0 0 0 0 0 0 0 0 0 0 0 0 0 0 0 0 0 0 0 0 0 0 0 0 0 0 0 0 0 0 0 0 0 0 0 0 0 0 0 0 0 0 0 0 0 0 0 0 0 0 0 0 0 0 0 0 0 0 0 0 0 0 0 0 0 0 0 0 0 0 0 0 0 0 0 0 0 0 0 0 0 0 0 0 0 0 0 0 0 0 0 0 0 0 0 0 0 0 0 0 0 0 0 0 0 0 18 18 18 0 19 19 19 0 17 17 17 0 20 20 20 0 23 23 23 0 24 24 24 0 22 22 22 0 25 25 25 0 28 28 28 0 29 29 29 0 27 27 27 0 30 30 30 0 33 33 33 0 34 34 34 0 32 32 32 0 35 35 35 0 38 38 38 0 39 39 39 0 37 37 37 0 40 40 40 0 43 43 43 0 44 44 44 0 42 42 42 0 45 45 45 0 48 48 48 0 49 49 49 0 47 47 47 0 50 50 50 0 0 0 0 0 0 0 0 0 0 0 0 0 0 0 0 0 0 0 0 0 0 0 0 0 0 0 0 0 0 0 0 0 21 21 21 0 26 26 26 0 31 31 31 0 36 36 36 0 41 41 41 0 46 46 46 0 0 0 0 0 0 0 0 0 0 0 0 0 0 0 13 13 13 0 14 14 14 0 12 12 12 0 15 15 15 0 0 0 3 3 3 0 2 2 2 0 4 4 4 0 5 5 5 0 0 0 0 0 0 0 11 11 11 0 0 0 0 0 0 0 0 0 8 8 8 0 9 9 9 0 7 7 7 0 10 10 10 0 0 0 0 0 0 0 0 0 0 0 0 0 0 0 0 0 0 0 6 6 6 0 0 0 0 0 0 0 0 0 0 0 0 0 0 0 0 0 0 0 0 0 0 0 0 0 0 0 0 0 0 0 0 0 0 0 0 0 0 0 0 0 0 0 0 0 0 0 0 0 0 0 0 0 0 0 53 53 53 0 54 54 54 0 52 52 52 0 55 55 55 0 58 58 58 0 59 59 59 0 57 57 57 0 60 60 60 0 63 63 63 0 64 64 64 0 62 62 62 0 65 65 65 0 68 68 68 0 69 69 69 0 67 67 67 0 70 70 70 0 73 73 73 0 74 74 74 0 72 72 72 0 75 75 75 0 78 78 78 0 79 79 79 0 77 77 77 0 80 80 80 0 83 83 83 0 84 84 84 0 82 82 82 0 85 85 85 0 88 88 88 0 89 89 89 0 87 87 87 0 90 90 90 0 93 93 93 0 92 92 92 0 95 95 95 0 97 97 97 0 98 98 98 0 94 94 94 0 99 99 99 0 100 100 100 0 51 51 51 0 56 56 56 0 61 61 61 0 66 66 66 0 71 71 71 0 76 76 76 0 86 86 86 0 91 91 91 0 0 0 0 0 0 0 0 0 0 0 0 0 0 0 0 0 0 0 0 0 0 0 0 0 0 0 0 0 0 0 0 0 0 0 0 0 0 0 0 0 0 0 0 0 0 0 0 0 0 0 0 0 0 0 0 0 0 0 0 0 0 0 0 0 0 0 0 0 0 0 0 0 0 0 0 0 0 0 0 0 0 0 0 0 0 0 0 0 0 0 0 0 0 0 0 0 0 0 0 0 0 0 0 0 0 0 0 0 0 0 0 0 0 0 0 0 0 0 0 0 0 0 0 0 0 0 0 0 0 0 0 0 0 0 0 0 0 0 0 0 0 0 0 0 0 0 0 0 0 0 0 0 0 0 0 0 0 0 0 0 0 0 0 0 0 0 0 0 0 0 0 0 0 0 0 0 0 0 0 0 0 0 0 0 0 0 0 0 0 0 0 0 0 0 0 0 0 0 0 0 0 0 0 0 0 0 0 0 0 0 0 0 0 0 0 0 0 0 0 0 0 0 0 0 0 0 0 0 0 0 0 0 0 0 0 0 0 0 0 0 0 0 0 0 0 0 0 0 0 0 0 0 0 0 0 0 0 0 0 0 0 0 0 0 0 0 0 0 0 0 0 0 0 0 0 0 0 0 0 0 0 0 0 0 0 0 0 0 0 0 0 0 0 0 0 0 0 0 0 0 0 0 0 0 0 0 0 0 0 0 0 0 0 0 0 0 0 0 0 0 0 0 0 0 0 0 0 0 0 0 0 0 0 0 0 0 0 0 0 0 0 0 0 0 0 0 0 0 0 0 0 0 0 0 0 0 0 0 0 0 0 0 0 0 0 0 0 0 0 0 0 0 0 0 0 0 0 0 0 0 0 0 0 0 0 0 0 0 0 0 0 0 0 0 0 0 0 0 0 0 0 0 0 0 0 0 0 0 0 0 0 0 0 0 0 0 0 0 0 0 0 0 0 0 0 0 0 0 0 0 0 0 0 0 0 0 0 0 0 0 0 0 0 0 0 0 0 0 0 0 0 0 0 0 0 0 0 0 0 0 0 0 0 0 0 0 0 0 0 0 0 0 0 0 0 0 0 0 0 0 0 0 0 0 0 0 0 0 0 0 0 0 0 0 0 0 0 0 0 0 0 0 0 0 0 0 0 0 0 0 0 0 0 0 0 0 0 0 0 0 0 0 0 0 0 0 0 0 0 0 0 0 0 0 0 0 0 0 0 0 0 0 0 0 0 0 0 0 0 0 0 0 0 0 0 0 0 0 0 0 0 0 0 0 0 0 0 0 0 0 0 0 0 0 0 0 0 0 0 0 0 0 0 0 0 0 0 0 0 0 0 0 0 0 0 0 0 0 0 0 0 0 0 0 0 0 0 0 0 0 0 0 0 0 0 0 0 0 0 0 0 0 0 0 0 0 0 0 0 0 0 0 0 0 0 0 0 0 0 0 0 0 0 0 0 0 0 0 0 0 0 0 0 0 0 0 0 0 0 0 0 0 0 0 0 0 0 0 0 0 0 0 0 0 0 0 0 0 0 0 0 0 0 0 0 0 0 0 0 0 0 0 0 0 0 0 0 0 0 0 0 0 0 0 0 0 0 0 0 0 0 0 0 0 0 0 0 0 0 0 0 0 0 0 0 0 0 0 0 0 0 0 0 0 0 0 0 0 0 0 0 0 0 0 0 0 0 0 0 0 0 0 0 0 0 0 0 0 0 0 0 0 0 0 0 0 0 0 0 0 0 0 0 0 0 0 0 0 0 0 0 0 0 0 0 0 0 0 0 0 0 0 81 81 0 0 0 0 0 0 0 0 0 0 0 0 0 0 0 0 0 0 0 0 0 0 0 0 0 0 0 0 0 0 0 0 0 0 0 0 0 0 0 0 0 0 0 0 0 0 0 0 0 0 0 0 0 0 0 0 0 0 0 0 0 0 0 0 0 0 0 0 0 0 0 0 0 0 0 0 0 0 0 0 0 0 0 0 0 0 0 0 0 0 0 0 0 0 0 0 0 0 0 0 0 0 0 0 0 0 0 0 0 0 0 0 0 0 0 0 0 0 0 0 0 0 0 0 0 0 0 0 0 0 0 0 0 0 0 0 0 0 0 0 0 0 0 0 0 0 0 0 0 0 0 0 0 0 0 0 0 0 0 0 0 0 0 0 0 0 0 0 0 0 0 0 0 0 0 0 0 0 0 0 0 0 0 0 0 0 0 0 0 0 0 0 0 0 0 0 0 0 0 0 0 0 0 0 0 0 0 0 0 0 0 0 0 0 0 0 0 0 0 0 0 0 0 0 0 0 0 0 0 0 0 0 0 0 0 0 0 0 0 0 0 0 0 0 0 0 0 0 0 0 0 0 0 0 0 0 0 0 0 0 0 0 0 0 0 0 0 0 0 0 0 0 0 0 0 0 0 0 0 0 0 0 0 0 0 0 0 0 0 0 0 0 0 0 0 0 </DataArray>
</CellData>
</Piece>
</UnstructuredGrid>
</VTKFile>