<?xml version="1.0"?>
<VTKFile type="UnstructuredGrid"  version="0.1"  >
<UnstructuredGrid>
<Piece  NumberOfPoints="372" NumberOfCells="644">
<Points>
<DataArray  type="Float64"  NumberOfComponents="3"  format="ascii">0.1 0 0  0.1353553390593274 -0.01464466094067263 0  0.15 -0.05 0  0.15 -0.1 0  0.35 -0.1 0  0.35 -0.05 0  0.3646446609406726 -0.01464466094067262 0  0.4 0 0  0.8853553390593274 0.5146446609406726 0  0.85 0.5 0  1.15 0.5 0  1.114644660940673 0.5146446609406726 0  1.1 0.55 0  1.1 0.6 0  0.9 0.6 0  0.9 0.55 0  1.6 0 0  1.635355339059327 -0.01464466094067263 0  1.65 -0.05 0  1.65 -0.1 0  1.85 -0.1 0  1.85 -0.05 0  1.864644660940673 -0.01464466094067262 0  1.9 0 0  0 0.5 0  0 0 0  2 0 0  2 0.5 0  1 0.5 0  1 0 0  1.75 0 0  0.25 0 0  1 0.6 0  0.926536686473018 0.5 0  1.073463313526982 0.5 0  1.75 -0.1 0  1.823463313526982 0 0  1.676536686473018 0 0  0.176536686473018 0 0  0.323463313526982 0 0  0.8882683432365091 0.5 0  1.111731656763491 0.5 0  1.861731656763491 0 0  1.638268343236509 0 0  0.138268343236509 0 0  0.361731656763491 0 0  1.575 0.5 0  0.425 0.5 0  1.3 0 0  0.7 0 0  0.55 0.243125 0  1.3625 0.5 0  1.7875 0.5 0  2 0.25 0  0.2125 0.5 0  0 0.25 0  1.45 0.2351562500000001 0  1.15 0.2275 0  0.814142661900757 0.2382572014297729 0  1.713268343236509 0.2541611242572618 0  0.286731656763491 0.2541611242572618 0  0.6375 0.5 0  1.25625 0.36375 0  0.9802565507295946 0.1762182083101574 0  0.85 0 0  0.963268343236509 0.3397469594051027 0  0.1420232678912347 0.3445927222924505 0  1.857976732108765 0.3445927222924504 0  0.6839171015261212 0.3408486454655549 0  1.301709900142829 0.1643279561381291 0  1.45 0 0  1.15 0 0  0.55 0 0  1.842597485145236 0.1592646942832626 0  0.144604305213471 0.1667405213441943 0  1.46875 0.3882270925516225 0  0.4146007600921047 0.1588268125395756 0  0.53125 0.3928520377128954 0  0.6805070573017298 0.1558084993635351 0  1.68125 0.5 0  1.611626314419634 0.3587970113946699 0  0.31875 0.5 0  0.3892553399485741 0.3583011382809036 0  1.587911029250545 0.1577074194056631 0  1.102395983486086 0.3597518576280467 0  0.8343903911551274 0.3688109020951406 0  0.2668095536961531 0.1273054767285641 0  1.718062799231036 0.1251192118481992 0  0 0.125 0  0 0.375 0  2 0.375 0  2 0.125 0  0.2638891507610101 0.3830110433290314 0  1.736332685874272 0.3782504055140868 0  1.09174722734604 0.11375 0  0.5317423578086695 0.1215625 0  0.8662122253178564 0.1242667521957181 0  0.7437499999999999 0.5 0  1.415099204334789 0.117578125 0  1.338647941495704 0.2776407889789468 0  1.225 0.08295328010269039 0  1.044934141896312 0.2655840357581922 0  1.360670194630334 0.3918741601506566 0  1.46875 0.5 0  0.10625 0.5 0  0.53125 0.5 0  1.25625 0.5 0  1.89375 0.5 0  1.514188796360536 0.08302208062992271 0  0.764381560681757 0.0871782847094863 0  1.525778759672189 0.3035577218371151 0  0.625 0 0  0.4431830765826266 0.2638058829959287 0  0.25 -0.1 0  1.240660335970882 0.266354325160321 0  1.613135331127417 0.2546123123655805 0  1.813358977995536 0.2549931494680896 0  1.906104158580891 0.2309910584897394 0  0.7160619825354541 0.2477047636407877 0  0.925 0 0  0.9625 0.08501363826466637 0  0.8852526091230761 0.2940756474247963 0  0.4525140107451148 0.0752569709414295 0  0.09916529813975694 0.2550259274906409 0  0.1929155020677784 0.2474415259352375 0  1.036731656763491 0.4193139736065037 0  1.203125 0.431875 0  0.1191341716182545 0.08421771868519158 0  0.8962417457561944 0.2068715235395836 0  1.412435890904155 0.3226551697005143 0  1.812744090440489 0.4177639872738315 0  2 0.3125 0  0.159375 0.4304078957378359 0  0.7494528395049671 0.4070332630510013 0  0.7717200552244098 0.3116835467120756 0  1.880865828381745 0.08308053625690677 0  0.07365810962618054 0.4200468568177466 0  1.795249660263852 0.08777780029796906 0  0.3516916474731152 0.09155479034181555 0  1.18025284269447 0.325968985519588 0  0.6323274338087806 0.2709258373246736 0  0.6219855934554097 0.4091306240646214 0  1.639428664797117 0.08726396851051005 0  0.6625 0.07443205178578602 0  1.485672270449515 0.1605987493580833 0  1.375 0 0  1.334023824221336 0.08181884225663613 0  0.9119168970963484 0.4123128344559089 0  0.9626652395603791 0.2570375191746969 0  1.214814068490802 0.1693989100154473 0  1.374105283956196 0.2034053024600933 0  1.917667337647564 0.4126734870004296 0  0.06237675495358546 0.1802554380819812 0  1.763838584947058 0.1914300004417605 0  0.3324019458919943 0.181996651206603 0  0.4890553996976525 0.1901260344760563 0  0.7632000246794353 0.1713018536657513 0  1.059512678371377 0.1869451893453361 0  1.53857701521347 0.2222844259334116 0  0.569362093608741 0.3215872042601962 0  0.3363725918863069 0.4203783416586453 0  1.664587073927285 0.1877423845881905 0  1.665987056316035 0.4197594292283667 0  0.6121612307083084 0.1948448660533402 0  0.3635986755794288 0.2810233655302244 0  0.4686693374648059 0.3409864077489287 0  0.4539411332113522 0.4224448269471819 0  0.200975900620556 0.07832922670223591 0  0 0.3125 0  1.521875 0.4441135462758112 0  0.2162668599857411 0.3215794704189798 0  1.416534407813248 0.4441135462758113 0  1.309375 0.4468206275839642 0  1.923593198217523 0.1518983615684542 0  1.225 0 0  0.475 0 0  0.7749999999999999 0 0  1.525 0 0  1.075 0 0  1.034542404617546 0.06601440231488438 0  0 0.0625 0  1.593701228004961 0.4294991664772548 0  1.663440908321481 0.3074442188679626 0  1.923774414085621 0.3054725162263883 0  0.07228138842215298 0.3229271843579871 0  0.6906249999999999 0.5 0  1.786831499600475 0.3241118966815731 0  2 0.0625 0  0.3202006590878603 0.3383297225809998 0  0.2437545844041715 0.1959183165531021 0  1.540947765496889 0.3743111449309621 0  1.106209335162126 0.4299328079448052 0  1.112783732157442 0.2887974700967868 0  1.034749572820424 0.3364144417265655 0  0.2887783217416974 0.060823237606658 0  0.5861586322331098 0.0675830360658785 0  0.8973672327010591 0.0629665219425492 0  0.796875 0.5 0  1.152535091138951 0.07308923163702299 0  0.8124268369549432 0.4334886901113615 0  0.8294032395915556 0.06699191709900851 0  1.145951773090357 0.1577821664253368 0  1.734375 0.5 0  0.3872390552208133 0.2191484904352268 0  1.700216649434573 0.06159150686191597 0  0.61884183408656 0.1271924733628141 0  0.265625 0.5 0  0.584375 0.5 0  0.2042848518990046 0.1426161233053394 0  0.2247297063311217 0.4355908763403239 0  0.6856628931319081 0.4046588885630085 0  0.5030521214231167 0.2868344042137864 0  0.06351333175220442 0.1161367269918164 0  0.9232040328565323 0.1503091162016526 0  0.8273077242192703 0.1753832328088175 0  1.576465494606999 0.09527691522563406 0  0.9730228494753786 0.4390149647299337 0  2 0.1875 0  0 0.1875 0  0 0.4375 0  2 0.4375 0  1.72496736064629 0.3170280025280643 0  1.4125 0.05283772530685282 0  0.2120539235169397 -0.05089215296612071 0  0.286731656763491 -0.05000000000000001 0  1.786731656763491 -0.05000000000000001 0  1.71205392351694 -0.05089215296612081 0  0.963268343236509 0.5499999999999999 0  1.036731656763491 0.55 0  1.159946476756591 0.3857772992265817 0  1.026776472354667 0.1306613177787031 0  1.946875 0.5 0  0.5125000000000001 0.05219237822021986 0  0.5506122789343104 0.1808807205386344 0  0.1962248032750062 0.3803869468852152 0  1.357419486887876 0.1385638153674606 0  1.75312780640874 0.4394110011399055 0  0.06309766683452518 0.05220626693524028 0  1.866685804796728 0.2843469777001684 0  0.8934748791920796 0.3543465953989462 0  1.943706086385112 0.09173761979397514 0  0.4723905425720284 0.1321806643209403 0  0.5578125 0.4464260188564477 0  1.427701363653826 0.1763009563252264 0  1.294568354388783 0.2293329782562588 0  1.397366486972295 0.2643729603747165 0  1.285375692445333 0.3091424692282126 0  0.371875 0.5 0  1.95 0 0  0.3952351267759932 0.4169588978615399 0  0.6681001083097404 0.2134350659457945 0  1.337822227812954 0.3370394162568601 0  0.627043180215654 0.3288176676355178 0  1.866682031500742 0.4456479706402614 0  1.096412527576802 0.05495530192974003 0  1.47173415494396 0.3286966131608954 0  0.829741357677547 0.3109717748081037 0  0.281811029746165 0.43723071510628 0  1.628125 0.5 0  1.667676591501413 0.3635346626957098 0  1.279780070007437 0.108157062651906 0  1.2625 0.04147664005134519 0  1.093288668992312 0.2350146842272665 0  1.014776558027608 0.2193224926681506 0  0.7158814072826597 0.4508858252356244 0  0.148875383376485 0.286276736765647 0  0.478125 0.5 0  1.187341872713489 0.1223389259010118 0  0.4111206078244619 0.3081437774358042 0  0.053125 0.5 0  0.7374999999999999 0.03966825943308927 0  0.7102194904709515 0.1065531709179994 0  0.810160921399707 0.1198239207762339 0  1.771519697137402 0.1371721542766672 0  0.9918543683883102 0.3870512349419566 0  1.553824322349781 0.04596848920027192 0  1.414304078918384 0.3780183872688552 0  1.304857735946293 0.3911870314783804 0  1.258557060392048 0.4229466847475187 0  1.910777596300392 0.358506548083023 0  0.8691341716182546 0.4478071618567059 0  1.000267784893303 0.2953089582883232 0  1.36297820209117 0.4463972590429522 0  0.6568469348569831 0.4499377396114613 0  0.5047377780498882 0.4393690180317946 0  0.3364385067057792 0.2350850197261255 0  1.415625 0.5 0  0.159375 0.5 0  1.309375 0.5 0  1.521875 0.5 0  1.203125 0.5 0  1.840625 0.5 0  1.467937345686539 0.05245661229642179 0  0.4398500289050561 0.2106110166695337 0  0.1904269098954539 0.1941423531118995 0  0.1437586367689645 0.223029025736778 0  1.469204703906624 0.4409880806963635 0  0.2716259365528726 0.308906445039521 0  1.53611171602213 0.1351103110646566 0  1.466336971802008 0.1051547050641564 0  1.584707603930641 0.3063038415103279 0  0.7170763997031501 0.1955878717971495 0  1.66527070835977 0.1341823446458058 0  0.3979014170003797 0.0574149006536949 0  1.957454398789137 0.21875 0  0.1592281723324378 0.1170349605893605 0  1.16305297344683 0.2773715227122724 0  1.19374206174922 0.04147664005134519 0  0.4118581211268609 0.1071975551910213 0  0.04848189422631843 0.2742316778421076 0  0.5198223497518735 0.335473690397295 0  0.5814797511015446 0.3738911696135933 0  1.480704019575092 0.2773173071478024 0  0.1574025148547635 0.04862975297221375 0  0.09553164916692763 0.3711671940733925 0  1.925 0.04436952131303207 0  1.760792404345394 0.2778392663661586 0  1.869746037604071 0.3944814463570011 0  1.836252976913455 0.05253400450097552 0  1.95882766760983 0.3421724159785245 0  1.20520625738472 0.2238828919790739 0  1.58849912845092 0.2092897213713446 0  1.663136360641895 0.2398553885653024 0  1.814518781073905 0.2030179786998711 0  1.05 0.6 0  1.7 -0.1 0  1.8 -0.1 0  0.05 0 0  0.95 0.6 0  0.3 -0.1 0  0.2 -0.1 0  0.2384277382827752 0.2702894613471577 0  1.25127120148201 0.2039169526015389 0  1.713722682533884 0.2027784074052134 0  1.209827875588841 0.3823256369270777 0  1.753502674664512 0.05374641577908463 0  1.234799426934537 0.3172379723237929 0  0.7194202188024976 0.3009824245695701 0  0.7632832322151379 0.2240959432698412 0  0.6078523768086472 0.4564990735741574 0  0.73697947404671 0.353845419761729 0  0.7860591434021522 0.3588924080052798 0  0.5011656964306084 0.2377403625564347 0  1.78665767086647 0.3745709151738141 0  1.154604072778615 0.4340523437524588 0  1.565589282808439 0.2621270608162196 0  0.334649274418623 0.04668022481882655 0  1.858124819116087 0.2367835514716078 0  1.877137253780309 0.1926607637177232 0  1.604369454583487 0.05056529308878924 0  0.04801268701835917 0.3792365763355439 0  0.7664574185766081 0.4547346539948374 0  0.09943823300158411 0.1488429656690936 0  0.05990791748473764 0.2279057404954807 0  1.954417368062487 0.2674718444594583 0  0.3425974851452365 0 0  0.3330303993361092 -0.02696438215812718 0  1.842597485145236 0 0  1.852164570954364 0.02780552663654005 0  1.833030399336109 -0.02696438215812721 0  1.657402514854764 0 0  1.647835429045636 0.04305928438478272 0  1.666969600663891 -0.02696438215812721 0  1.092597485145236 0.5 0  1.083030399336109 0.4617856433191407 0  1.083030399336109 0.5269643821581272 0  0.9074025148547635 0.5 0  0.9169696006638908 0.4565327511938674 0  0.9169696006638908 0.5269643821581272 0  0.1574025148547635 0 0  0.1669696006638907 -0.02696438215812716 0  0.3521645709543638 0.02564576199326994 0  </DataArray>
</Points>
<Cells>
<DataArray  type="UInt32"  Name="connectivity"  format="ascii">31 39 224  92 170 297  12 228 365  16 17 43  17 43 360  125 191 364  10 11 41  28 227 228  35 225 226  14 15 328  32 227 228  33 227 368  30 37 226  18 226 362  11 41 363  30 225 226  36 225 359  116 153 323  0 1 44  31 223 224  113 223 224  30 36 225  43 349 361  1 44 369  15 227 368  33 366 367  41 191 364  41 363 364  21 225 359  137 273 335  83 158 298  37 360 361  127 305 313  44 313 369  5 224 356  124 189 294  40 366 367  8 9 40  101 192 193  114 306 336  36 357 358  22 23 42  114 244 246  55 168 309  39 355 371  6 7 45  99 244 246  134 337 340  96 196 200  38 167 313  86 138 194  83 142 302  87 161 302  83 161 302  73 137 273  73 135 137  73 135 173  0 127 313  92 209 234  69 235 260  85 147 280  65 193 281  65 121 239  58 134 256  151 253 317  110 300 345  138 194 346  112 164 268  9 197 199  99 129 245  94 198 201  156 214 272  84 192 193  34 363 364  163 205 233  71 198 307  80 182 259  48 145 146  29 119 120  118 140 250  95 155 241  73 273 323  180 212 237  75 169 190  76 155 241  164 203 285  77 310 311  122 303 308  116 186 316  80 162 259  79 162 236  82 164 188  77 165 310  124 265 295  82 164 268  98 146 235  70 145 222  126 229 334  156 214 338  86 138 154  86 167 208  135 137 318  153 273 323  123 265 295  124 170 265  104 132 136  67 183 238  187 240 315  66 184 314  67 183 279  79 202 236  149 201 267  63 128 148  143 195 205  95 205 233  96 128 213  58 121 128  197 199 351  108 298 299  149 320 332  102 251 276  99 246 251  146 235 260  149 201 320  157 262 263  139 334 336  103 169 296  184 314 350  77 165 166  105 207 242  172 277 278  108 215 275  109 270 271  49 111 143  80 181 190  129 245 312  72 111 195  111 143 195  76 138 154  50 163 233  113 223 330  57 201 262  57 192 306  144 158 298  59 322 333  59 182 221  186 221 316  73 173 348  91 187 240  58 214 338  118 134 337  119 120 196  96 196 213  94 179 230  63 120 230  65 121 148  121 128 148  39 194 346  39 346 371  168 184 309  86 189 208  124 170 331  147 216 274  65 147 239  84 125 191  62 334 336  167 305 313  167 208 305  96 214 272  63 128 213  129 255 312  129 255 276  130 253 317  107 151 253  53 217 304  53 304 354  60 164 188  54 132 209  159 252 311  134 340 341  85 199 341  68 337 340  30 36 335  42 357 358  87 273 335  30 204 335  76 138 308  138 303 308  139 229 334  84 139 229  68 141 252  50 140 159  185 264 283  141 210 283  142 215 349  16 275 349  109 176 270  78 143 271  56 245 312  56 144 158  98 146 222  145 146 222  48 146 261  146 260 261  28 33 216  147 280 367  101 262 263  101 193 281  114 244 332  57 201 320  56 144 243  56 150 243  90 151 319  183 279 319  127 212 352  152 212 352  59 221 316  87 161 333  112 203 293  76 203 293  112 165 211  112 164 203  118 301 338  78 163 250  63 157 263  120 179 230  110 158 345  115 300 345  50 159 211  165 211 310  82 165 166  115 321 322  83 158 321  46 181 258  80 162 181  140 163 250  50 140 163  92 188 297  60 188 297  81 160 247  82 166 249  47 166 266  31 38 167  86 167 194  89 168 350  168 184 350  103 171 296  92 170 234  132 209 234  102 172 277  75 255 276  102 172 282  51 172 282  117 173 304  100 260 261  100 198 307  122 175 232  7 122 175  109 156 272  49 176 270  215 275 349  70 222 292  198 201 267  29 120 179  29 178 179  94 198 254  88 180 212  88 152 212  46 169 181  169 181 190  115 182 300  161 322 333  117 173 348  117 183 238  123 184 309  66 170 265  210 264 283  133 210 264  67 186 343  93 186 343  26 187 248  82 160 188  92 160 188  86 154 189  60 154 189  110 255 312  80 182 300  10 41 344  41 191 344  139 192 306  84 139 192  84 125 193  65 147 274  31 167 194  31 39 194  95 195 205  72 175 232  64 196 200  64 119 196  85 199 280  9 199 280  71 178 254  71 198 254  133 199 351  133 340 341  109 176 200  64 176 200  157 201 262  94 157 201  52 130 236  52 202 236  154 203 285  76 154 203  37 204 361  30 37 204  78 143 205  78 163 205  92 209 257  92 160 257  61 207 339  61 185 283  189 208 294  74 208 294  206 209 257  54 206 209  68 141 210  133 199 341  112 211 342  50 211 342  0 127 237  127 212 237  120 196 213  63 120 213  96 128 214  58 128 214  83 142 215  144 298 299  125 216 274  28 125 216  173 217 304  91 173 217  88 152 218  55 218 353  136 314 350  24 219 269  107 151 231  90 151 220  93 186 221  182 221 259  98 243 299  98 222 299  31 38 223  2 223 370  4 5 329  39 224 356  20 21 326  35 226 325  28 33 227  28 34 228  32 228 324  191 229 344  84 191 229  94 157 230  63 157 230  151 220 231  27 220 231  72 195 232  95 195 232  155 293 342  95 155 233  66 132 234  66 170 234  150 235 243  69 150 235  93 162 236  130 317 343  0 237 327  67 186 238  116 186 238  85 147 239  58 121 256  91 173 240  135 173 240  122 232 241  95 232 241  166 266 284  141 252 311  98 235 243  144 243 299  69 150 244  99 150 244  99 150 245  56 150 245  62 277 278  62 246 277  47 166 249  47 247 249  187 248 315  23 248 315  160 247 249  82 160 249  78 250 301  118 250 301  99 129 251  129 251 276  140 159 252  68 140 252  52 130 291  94 179 254  178 179 254  110 190 255  75 190 255  121 239 256  85 239 256  81 160 257  81 206 257  162 181 258  79 162 258  93 221 259  93 162 259  69 149 260  100 149 260  71 174 307  48 174 261  57 192 262  101 192 262  65 148 281  63 148 263  97 197 351  97 185 264  66 184 265  123 184 265  105 242 284  105 266 284  100 198 267  100 149 267  112 165 268  82 165 268  136 219 269  104 136 269  143 270 271  49 143 270  109 156 271  78 156 271  109 200 272  96 200 272  87 153 273  87 204 335  65 193 274  125 193 274  108 177 275  16 177 275  75 171 276  102 171 276  246 251 277  102 251 277  106 172 278  106 126 278  151 279 319  67 317 343  40 280 367  9 40 280  148 263 281  101 263 281  102 171 282  51 282 286  61 283 339  141 283 339  77 166 284  77 242 284  60 164 285  60 154 285  171 282 286  103 171 286  104 132 287  54 132 287  106 172 288  51 172 288  103 169 289  46 169 289  126 229 344  106 126 290  130 253 291  107 253 291  70 177 292  108 177 292  76 155 293  112 293 342  124 294 295  74 294 295  152 218 353  74 305 352  75 171 296  75 169 296  170 297 331  60 297 331  108 215 298  83 215 298  222 292 299  108 292 299  80 190 300  110 190 300  78 156 301  156 301 338  142 204 302  87 204 302  45 355 371  7 122 303  117 183 354  117 304 354  74 208 305  127 305 352  114 320 332  139 306 336  174 261 307  100 261 307  122 241 308  76 241 308  55 309 353  123 309 353  159 211 310  159 310 311  141 242 311  77 242 311  56 158 312  110 158 312  0 44 313  38 313 369  66 132 314  132 136 314  135 240 315  23 42 358  59 153 316  116 153 316  67 279 317  151 279 317  36 318 358  135 318 358  53 131 354  90 131 319  114 306 320  57 306 320  83 161 321  161 321 322  59 182 322  115 182 322  117 347 348  116 323 347  12 228 324  12 13 324  18 226 325  18 19 325  21 225 326  35 225 326  180 237 327  25 180 327  15 227 328  32 227 328  5 224 329  113 224 329  2 223 330  2 3 330  124 189 331  60 189 331  69 149 332  69 244 332  87 153 333  59 153 333  62 278 334  126 278 334  36 318 335  137 318 335  114 246 336  62 246 336  68 140 337  118 140 337  58 134 338  118 134 338  207 242 339  141 242 339  133 210 340  68 210 340  134 256 341  85 256 341  155 233 342  50 233 342  130 236 343  93 236 343  126 290 344  10 290 344  158 321 345  115 321 345  303 346 371  138 303 346  117 238 347  116 238 347  323 347 348  73 323 348  16 43 349  43 360 361  136 219 350  89 219 350  97 264 351  133 264 351  74 295 352  152 295 352  152 295 353  123 295 353  131 319 354  183 319 354  5 6 356  6 45 355  6 355 356  39 355 356  21 22 359  22 42 357  23 315 358  135 315 358  22 357 359  36 357 359  37 360 362  37 226 362  142 204 361  142 349 361  17 360 362  17 18 362  34 363 365  34 228 365  28 34 364  28 125 364  11 363 365  11 12 365  8 15 368  8 40 366  147 216 367  33 216 367  8 366 368  33 366 368  38 369 370  38 223 370  1 369 370  1 2 370  7 45 371  7 303 371  </DataArray>
<DataArray  type="UInt32"  Name="offsets"  format="ascii">3 6 9 12 15 18 21 24 27 30 33 36 39 42 45 48 51 54 57 60 63 66 69 72 75 78 81 84 87 90 93 96 99 102 105 108 111 114 117 120 123 126 129 132 135 138 141 144 147 150 153 156 159 162 165 168 171 174 177 180 183 186 189 192 195 198 201 204 207 210 213 216 219 222 225 228 231 234 237 240 243 246 249 252 255 258 261 264 267 270 273 276 279 282 285 288 291 294 297 300 303 306 309 312 315 318 321 324 327 330 333 336 339 342 345 348 351 354 357 360 363 366 369 372 375 378 381 384 387 390 393 396 399 402 405 408 411 414 417 420 423 426 429 432 435 438 441 444 447 450 453 456 459 462 465 468 471 474 477 480 483 486 489 492 495 498 501 504 507 510 513 516 519 522 525 528 531 534 537 540 543 546 549 552 555 558 561 564 567 570 573 576 579 582 585 588 591 594 597 600 603 606 609 612 615 618 621 624 627 630 633 636 639 642 645 648 651 654 657 660 663 666 669 672 675 678 681 684 687 690 693 696 699 702 705 708 711 714 717 720 723 726 729 732 735 738 741 744 747 750 753 756 759 762 765 768 771 774 777 780 783 786 789 792 795 798 801 804 807 810 813 816 819 822 825 828 831 834 837 840 843 846 849 852 855 858 861 864 867 870 873 876 879 882 885 888 891 894 897 900 903 906 909 912 915 918 921 924 927 930 933 936 939 942 945 948 951 954 957 960 963 966 969 972 975 978 981 984 987 990 993 996 999 1002 1005 1008 1011 1014 1017 1020 1023 1026 1029 1032 1035 1038 1041 1044 1047 1050 1053 1056 1059 1062 1065 1068 1071 1074 1077 1080 1083 1086 1089 1092 1095 1098 1101 1104 1107 1110 1113 1116 1119 1122 1125 1128 1131 1134 1137 1140 1143 1146 1149 1152 1155 1158 1161 1164 1167 1170 1173 1176 1179 1182 1185 1188 1191 1194 1197 1200 1203 1206 1209 1212 1215 1218 1221 1224 1227 1230 1233 1236 1239 1242 1245 1248 1251 1254 1257 1260 1263 1266 1269 1272 1275 1278 1281 1284 1287 1290 1293 1296 1299 1302 1305 1308 1311 1314 1317 1320 1323 1326 1329 1332 1335 1338 1341 1344 1347 1350 1353 1356 1359 1362 1365 1368 1371 1374 1377 1380 1383 1386 1389 1392 1395 1398 1401 1404 1407 1410 1413 1416 1419 1422 1425 1428 1431 1434 1437 1440 1443 1446 1449 1452 1455 1458 1461 1464 1467 1470 1473 1476 1479 1482 1485 1488 1491 1494 1497 1500 1503 1506 1509 1512 1515 1518 1521 1524 1527 1530 1533 1536 1539 1542 1545 1548 1551 1554 1557 1560 1563 1566 1569 1572 1575 1578 1581 1584 1587 1590 1593 1596 1599 1602 1605 1608 1611 1614 1617 1620 1623 1626 1629 1632 1635 1638 1641 1644 1647 1650 1653 1656 1659 1662 1665 1668 1671 1674 1677 1680 1683 1686 1689 1692 1695 1698 1701 1704 1707 1710 1713 1716 1719 1722 1725 1728 1731 1734 1737 1740 1743 1746 1749 1752 1755 1758 1761 1764 1767 1770 1773 1776 1779 1782 1785 1788 1791 1794 1797 1800 1803 1806 1809 1812 1815 1818 1821 1824 1827 1830 1833 1836 1839 1842 1845 1848 1851 1854 1857 1860 1863 1866 1869 1872 1875 1878 1881 1884 1887 1890 1893 1896 1899 1902 1905 1908 1911 1914 1917 1920 1923 1926 1929 1932 </DataArray>
<DataArray  type="UInt8"  Name="types"  format="ascii">5 5 5 5 5 5 5 5 5 5 5 5 5 5 5 5 5 5 5 5 5 5 5 5 5 5 5 5 5 5 5 5 5 5 5 5 5 5 5 5 5 5 5 5 5 5 5 5 5 5 5 5 5 5 5 5 5 5 5 5 5 5 5 5 5 5 5 5 5 5 5 5 5 5 5 5 5 5 5 5 5 5 5 5 5 5 5 5 5 5 5 5 5 5 5 5 5 5 5 5 5 5 5 5 5 5 5 5 5 5 5 5 5 5 5 5 5 5 5 5 5 5 5 5 5 5 5 5 5 5 5 5 5 5 5 5 5 5 5 5 5 5 5 5 5 5 5 5 5 5 5 5 5 5 5 5 5 5 5 5 5 5 5 5 5 5 5 5 5 5 5 5 5 5 5 5 5 5 5 5 5 5 5 5 5 5 5 5 5 5 5 5 5 5 5 5 5 5 5 5 5 5 5 5 5 5 5 5 5 5 5 5 5 5 5 5 5 5 5 5 5 5 5 5 5 5 5 5 5 5 5 5 5 5 5 5 5 5 5 5 5 5 5 5 5 5 5 5 5 5 5 5 5 5 5 5 5 5 5 5 5 5 5 5 5 5 5 5 5 5 5 5 5 5 5 5 5 5 5 5 5 5 5 5 5 5 5 5 5 5 5 5 5 5 5 5 5 5 5 5 5 5 5 5 5 5 5 5 5 5 5 5 5 5 5 5 5 5 5 5 5 5 5 5 5 5 5 5 5 5 5 5 5 5 5 5 5 5 5 5 5 5 5 5 5 5 5 5 5 5 5 5 5 5 5 5 5 5 5 5 5 5 5 5 5 5 5 5 5 5 5 5 5 5 5 5 5 5 5 5 5 5 5 5 5 5 5 5 5 5 5 5 5 5 5 5 5 5 5 5 5 5 5 5 5 5 5 5 5 5 5 5 5 5 5 5 5 5 5 5 5 5 5 5 5 5 5 5 5 5 5 5 5 5 5 5 5 5 5 5 5 5 5 5 5 5 5 5 5 5 5 5 5 5 5 5 5 5 5 5 5 5 5 5 5 5 5 5 5 5 5 5 5 5 5 5 5 5 5 5 5 5 5 5 5 5 5 5 5 5 5 5 5 5 5 5 5 5 5 5 5 5 5 5 5 5 5 5 5 5 5 5 5 5 5 5 5 5 5 5 5 5 5 5 5 5 5 5 5 5 5 5 5 5 5 5 5 5 5 5 5 5 5 5 5 5 5 5 5 5 5 5 5 5 5 5 5 5 5 5 5 5 5 5 5 5 5 5 5 5 5 5 5 5 5 5 5 5 5 5 5 5 5 5 5 5 5 5 5 5 5 5 5 5 5 5 5 5 5 5 5 5 5 5 5 5 5 5 5 5 5 5 5 5 5 5 5 5 5 5 5 5 5 5 5 5 5 5 5 5 5 5 5 5 5 5 5 5 5 5 5 5 5 5 </DataArray>
</Cells>
<CellData  Scalars="f">
<DataArray  type="Float64"  Name="f"  format="ascii">1 0 1 1 1 0 1 1 1 1 1 1 1 1 1 1 1 0 1 1 1 1 0 1 1 0 0 0 1 0 0 0 0 0 1 0 0 1 0 0 0 1 0 0 0 1 0 0 0 0 0 0 0 0 0 0 0 0 0 0 0 0 0 0 0 0 0 0 0 0 0 0 0 0 0 0 0 0 0 0 0 0 0 0 0 0 0 0 0 0 0 0 0 0 0 0 0 0 0 0 0 0 0 0 0 0 0 0 0 0 0 0 0 0 0 0 0 0 0 0 0 0 0 0 0 0 0 0 0 0 0 0 0 0 0 0 0 0 0 0 1 0 0 0 0 0 0 0 0 0 0 0 0 0 0 0 0 0 0 0 0 0 0 0 0 0 0 0 0 0 0 0 0 0 0 0 0 0 0 0 0 0 0 0 0 0 0 0 0 0 0 0 0 0 0 0 0 0 0 0 0 0 0 0 0 0 0 0 0 0 0 0 0 0 0 0 0 0 0 0 0 0 0 0 0 0 0 0 0 0 0 0 0 0 0 0 0 0 0 0 0 0 0 0 0 0 0 0 0 0 0 0 0 0 0 0 0 0 0 0 0 0 0 0 0 0 0 0 0 0 0 0 0 0 0 0 0 0 0 0 0 0 0 0 0 0 0 0 0 0 0 0 0 0 0 0 0 0 0 0 0 0 0 0 0 0 0 0 0 0 0 0 0 0 0 0 0 0 0 0 0 0 0 0 0 0 0 0 0 0 0 0 0 0 0 0 0 0 0 0 0 0 0 0 0 0 0 0 0 0 0 1 1 1 1 1 1 1 1 1 0 0 0 0 0 0 0 0 0 0 0 0 0 0 0 0 0 0 0 0 0 0 0 0 0 0 0 0 0 0 0 0 0 0 0 0 0 0 0 0 0 0 0 0 0 0 0 0 0 0 0 0 0 0 0 0 0 0 0 0 0 0 0 0 0 0 0 0 0 0 0 0 0 0 0 0 0 0 0 0 0 0 0 0 0 0 0 0 0 0 0 0 0 0 0 0 0 0 0 0 0 0 0 0 0 0 0 0 0 0 0 0 0 0 0 0 0 0 0 0 0 0 0 0 0 0 0 0 0 0 0 0 0 0 0 0 0 0 0 0 0 0 0 0 0 0 0 0 0 0 0 0 0 0 0 0 0 0 0 0 0 0 0 0 0 0 0 0 0 0 0 0 0 0 0 0 0 0 0 0 0 0 0 0 0 0 0 0 1 1 1 1 1 1 0 0 1 1 1 1 1 1 0 0 0 0 0 0 0 0 0 0 0 0 0 0 0 0 0 0 0 0 0 0 0 0 0 0 0 0 0 0 0 0 0 0 0 0 0 0 0 0 0 0 0 0 0 0 0 0 1 1 1 1 1 1 0 0 1 1 1 1 0 0 1 1 1 1 0 0 1 1 1 1 0 0 1 1 1 1 1 1 0 0 </DataArray>
</CellData>
</Piece>
</UnstructuredGrid>
</VTKFile>