<?xml version="1.0"?>
<VTKFile type="UnstructuredGrid"  version="0.1"  >
<UnstructuredGrid>
<Piece  NumberOfPoints="385" NumberOfCells="672">
<Points>
<DataArray  type="Float64"  NumberOfComponents="3"  format="ascii">0.04999999999999999 -0.05 0  0.04999999999999999 -0.1 0  0.35 -0.1 0  0.35 -0.05 0  0.3646446609406727 -0.01464466094067262 0  0.4 0 0  0 0 0  0.03535533905932739 -0.01464466094067263 0  1.2 0.5 0  1.164644660940673 0.5146446609406726 0  1.15 0.5499999999999999 0  1.15 0.6 0  0.85 0.6 0  0.85 0.55 0  0.8353553390593274 0.5146446609406726 0  0.8 0.5 0  1 0.5 0  1.65 -0.05 0  1.65 -0.1 0  1.95 -0.1 0  1.95 -0.05 0  1.964644660940673 -0.01464466094067262 0  2 0 0  1.6 0 0  1.635355339059327 -0.01464466094067263 0  0 0.5 0  2 0.5 0  1.123463313526982 0.5 0  0.8765366864730179 0.5 0  1.8 0 0  1 0.6 0  1 0 0  0.2 0 0  1.161731656763491 0.5 0  0.838268343236509 0.5 0  1.8 -0.1 0  1.676536686473018 0 0  1.923463313526982 0 0  0.2 -0.1 0  0.07653668647301798 0 0  0.3234633135269821 0 0  1.638268343236509 0 0  1.961731656763491 0 0  0.03826834323650899 0 0  0.3617316567634911 0 0  0.4 0.5 0  1.6 0.5 0  0.7 0 0  1.3 0 0  1.45 0.25 0  0.55 0.25 0  0 0.25 0  2 0.25 0  1.142597485145237 0.2300320737537709 0  0.85 0.2276376317704163 0  0.285990040996415 0.261594024597849 0  1.714009959003585 0.261594024597849 0  0.6000000000000001 0.5 0  0.2 0.5 0  1.4 0.5 0  1.8 0.5 0  1.289816039914905 0.3398160399149053 0  0.7077126700397157 0.3422873299602843 0  0.1467803473435396 0.1624242778748317 0  0.1394417084397257 0.3434466332482194 0  1.861731656763491 0.1556146745892071 0  1.860558291560275 0.3434466332482196 0  0.9955119050154341 0.3249853095492683 0  1.300881110517708 0.1694713336893754 0  0.6946299886511431 0.1667779931906858 0  0.55 0 0  0.85 0 0  1.45 0 0  1.15 0 0  0.996852508278381 0.1611654525460006 0  0.5 0.39 0  0.475 0.125 0  1.586138014467139 0.1616828086802834 0  1.578171178673595 0.3430972927958431 0  0.8574025148547635 0.3643903326100874 0  1.704519823039579 0.3997277490318272 0  1.125187483218582 0.3644601645365413 0  1.728622491602021 0.1260197529734516 0  0.3668356180384226 0.369396016398566 0  0.4174989389936684 0.244500636603799 0  0.3364451020116006 0.1353406679757719 0  1.413529753698618 0.3727059507397236 0  0 0.125 0  1.465624539010579 0.125 0  2 0.125 0  0 0.375 0  2 0.375 0  1.189854954492392 0.1164176914396247 0  0.2491948326781633 0.390981030726397 0  0.8049791111024175 0.1138188158852082 0  1.5 0.5 0  0.5851967776750773 0.1438819333949536 0  1.081675384050745 0.08842146301764935 0  0.9125026391665824 0.0905362258155708 0  0.5993569606780055 0.346556057385002 0  0.1 0.5 0  1.9 0.5 0  1.375 0 0  0.5 0.5 0  0.3 0.5 0  0.7000000000000001 0.5 0  1.3 0.5 0  1.7 0.5 0  0.9461804770252713 0.4138152616497669 0  0.2617316567634911 0.07421419652591436 0  0.244909325711767 0.171968355077634 0  1.817034704476407 0.2492551020055941 0  1.040980949125798 0.4083493977770402 0  1.3375 0.08454298843807478 0  0.625 0 0  1.36860276920115 0.2925801480623346 0  1.215148757403553 0.4032218354483463 0  1.200577530603704 0.3058826085866273 0  1.525 0 0  0.6500000000000001 0.4230671457124818 0  1.90857502414121 0.2354619110679516 0  0.7905170807333906 0.2994341837927901 0  0.75 0.4234002424784839 0  0.6501961898359074 0.2596753276390638 0  1.54727288879929 0.2508582169411898 0  0.1002301951700289 0.2511970683518928 0  0.1934810241867359 0.2497686588574864 0  0.6625 0.08226800388484215 0  0.08655792543028694 0.09206739689822573 0  1.504168046771446 0.4041522259832797 0  1.077043436481846 0.2898835059872709 0  0.9452696763165686 0.2426587434950551 0  1.5625 0.07822054972062803 0  1.649892654159507 0.08706667137890201 0  0.1765842685594888 0.0822587104395356 0  1.292181666908784 0.2544379741340347 0  1.385511538767743 0.155603041017382 0  1.35 0.4303195841236363 0  1.220175669253378 0.19566495049145 0  0.15 0.4293517775409398 0  1.769264245685337 0.3347829941122768 0  1.807893615632279 0.4130641003482012 0  1.919379802473649 0.08843176474666048 0  1.807089343776275 0.08723936413000266 0  0.4813766720827983 0.3044202400295708 0  1.632024956633282 0.2347385716612421 0  0.7644463338215598 0.2172959020640437 0  2 0.3125 0  1.496993526469801 0.3200800486313914 0  1.888836387303878 0.4195674241496744 0  1.001398662983086 0.08064077613468983 0  1.080475204134134 0.1728477016834934 0  0.06510950302328256 0.1761894446609235 0  1.225 0 0  0 0.4375 0  0.07773334742652091 0.3946323983359701 0  0 0.3125 0  0.925 0.6 0  0.9382683432365089 0.5 0  0.2617316567634911 0 0  0.275 -0.1 0  1.861731656763491 0 0  1.875 -0.1 0  1.738268343236509 0 0  1.725 -0.1 0  0.138268343236509 0 0  0.125 -0.1 0  1.075 0.6 0  1.061731656763491 0.5 0  1.620855120864411 0.4171287645507745 0  1.661094029765151 0.3273514269077803 0  0.9077244969835864 0.1711556850768535 0  0.7403737668750456 0.06808422746287666 0  0.570660718425134 0.4262175287044237 0  0.2320037204566325 0.316166772323643 0  1.787033004289842 0.177446820662441 0  1.022543090860011 0.2344986735531039 0  1.264294260912583 0.1033373093822256 0  0.9181819231970473 0.315684036383676 0  1.513751357476381 0.1831916442732244 0  0.925 0 0  0.475 0 0  0.7749999999999999 0 0  1.075 0 0  0.4022506052977472 0.08364963682135169 0  0.4266046813836183 0.4237315285305621 0  0.5396355263395196 0.07878131580371178 0  1.661888004919122 0.1618610855839999 0  0.35 0.4431838212049133 0  0.5219816546787068 0.1818110071927759 0  0.3033695309998214 0.332776229634401 0  0.3555497650481295 0.2823234184648686 0  0.3393236876519485 0.2096994896775729 0  2 0.1875 0  1.933780503012274 0.34375 0  0.0720119612487275 0.3176498712347302 0  1.931622366812704 0.1682766646310598 0  1.45 0.4498111814609514 0  1.413147152962427 0.06808297484668813 0  1.142597485145237 0.4324625170953281 0  0.4078363436426746 0.1584931003562632 0  1.75 0.5 0  1.49513622964246 0.06241638041593596 0  1.35633353230923 0.221533422951547 0  1.279422645790806 0.432455226771864 0  0.7253372840215077 0.2749157186055529 0  2 0.4375 0  0.8228037425728282 0.4286632604012565 0  0.3294042256695264 0.06772308791171579 0  1.55 0.5 0  0.6045067262078456 0.2091825631224692 0  0.4841666140142382 0.2371996838617051 0  0.4344214904129176 0.3550922976924773 0  2 0.0625 0  0 0.0625 0  0.7700722425432284 0.3613563235338065 0  0.8561663517359499 0.293285267389463 0  1.349191517525037 0.3655945763115646 0  1.433491673285216 0.3118662079470123 0  1.711622951239796 0.06133953301993504 0  1.721562536298485 0.1929230668355466 0  1.442885032754246 0.1856341504565053 0  0.5445920763840164 0.3136574206971657 0  0.4791508326757359 0.0625 0  0 0.1875 0  1.13951065066643 0.292476847106251 0  0.8843869209295526 0.4203652133214066 0  1.064523652680738 0.3507942086535084 0  1.145459766576558 0.1645871555100727 0  1.1875 0.05219298948689095 0  0.6016408969550827 0.06032847962045967 0  0.8509479663263209 0.06618835270236439 0  0.8443033869335375 0.1640775340563604 0  0.7449314482125747 0.1301444988388622 0  1.611437987467108 0.2920688427445818 0  0.25 0.5 0  0.288158881264942 0.439170583159855 0  1.85 0.5 0  1.948012934298784 0.40625 0  0.1883304151550907 0.381039311491128 0  0.2108644175230726 0.4392934967762088 0  1.948162344535538 0.28125 0  0.5970833092729163 0.2860583155714317 0  1.868848033795945 0.2824647929749151 0  1.95 0.5 0  0.05 0.5 0  1.030865828381746 0.55 0  0.9625 0.5540953840524817 0  0.2308658283817455 -0.05000000000000001 0  0.1625 -0.05409538405248179 0  1.8375 -0.05409538405248181 0  1.7625 -0.05409538405248181 0  1.563604039941789 0.4008169581191851 0  1.083851875249522 0.2315149296371726 0  1.525217446107564 0.1247115056210421 0  1.65 0.5 0  1.670546248771363 0.4462135355491759 0  0.2229011635247071 0.117856470359846 0  0.4617686282210948 0.182555285285046 0  1.817996250971953 0.3066064744376768 0  0.7083577274699521 0.2213085566007509 0  1.863510548528431 0.06184647636530248 0  1.232039451256177 0.2546257173428674 0  0.4256233498217159 0.2998480136501412 0  1.139991024937337 0.08609054734000993 0  0.6381565965613784 0.1637266394258494 0  1.04381908229492 0.1301049584104911 0  0.7886580358818307 0.1671027688431766 0  0.9057886815224064 0.5475669777163904 0  1.706964450927479 -0.04699716090325601 0  1.894211318477594 -0.04756697771639051 0  0.2942113184775936 -0.04756697771639042 0  0.1057886815224064 -0.04756697771639045 0  1.092597485145236 0.5467848606087272 0  1.769134171618254 0.04641598701701004 0  0.9529884659718879 0.04999411035765091 0  1.764648103935829 0.2289708321231474 0  0.7955160146357139 0.05868800520693245 0  1.242812582603986 0.05236624593280521 0  1.752049439514398 0.4386201644258909 0  0.9485857177361723 0.1331261171199641 0  0.5164215593051467 0.445 0  1.0375 0.03968210387338315 0  0.05478137756630722 0.4449248979469542 0  0.5524716273993022 0.3746659987047405 0  0.6525477456979226 0.3193663030002285 0  1.714244090919379 0.3446772892595953 0  0.1778795279837062 0.3031943559787912 0  1.109020068941062 0.04189436348558748 0  0.3135089235834518 0.388510276755836 0  1.536418417024497 0.4476126447780269 0  1.771081973848059 0.2816969217742885 0  0.45 0.5 0  0.1074025148547635 0.04321944242105765 0  1.0856167410074 0.4464177576733382 0  1.755548976891541 0.3858547638382469 0  0.5344314962249038 0.1309169370405511 0  1.25 0.5 0  0.05210721438477812 0.05143917949026266 0  1.834145294250147 0.1999347122130351 0  0.6632261900632107 0.371510371582032 0  1.955641516601844 0.214061958434503 0  1.26224103908136 0.2963301950887234 0  1.225 0.4543385630652054 0  0.8942534454394016 0.2565942826843259 0  1.233285787977527 0.1452247822942686 0  0.9521913783223767 0.3590403954102375 0  1.402959200459141 0.4248834538414245 0  0.2988311517486338 0.1740319116149725 0  0.2757694627505424 0.1258000184360167 0  0.9691341716182544 0.4593780639570986 0  1.000739477952067 0.3762161205078692 0  0.7092329343623044 0.3930742315675601 0  0.7013364476378072 0.4462538893399139 0  1.927577376389925 0.4535791974534015 0  0.4318785630121672 0.04099739759539551 0  1.030865828381746 0.4588139684263015 0  1.619134171618255 0.04686393117184747 0  0.880314860116748 0.1290798500319715 0  0.1463703015536458 0.2188005028128789 0  0.1935341573033094 0.1909539398486609 0  0.05037526854593085 0.2288144930650177 0  0.1278620841565758 0.2939102705333453 0  0.55 0.5 0  1.295558114655426 0.05255851761966564 0  0.15 0.5 0  0.35 0.5 0  0.75 0.5 0  0.6500000000000001 0.5 0  1.35 0.5 0  1.45 0.5 0  1.108175535900391 0.1310198318472583 0  0.8960548964810351 0.04213516378624129 0  0.6259503017167616 0.1157121099471006 0  1.681184733417189 0.2232330337044971 0  0.03842494075170715 0.28125 0  1.460278642194652 0.3543498784726712 0  0.2434171918515348 0.2268799764384239 0  1.181058941796 0.358564685668048 0  1.235357314051536 0.3487252733847416 0  1.656619280366494 0.3792521755913264 0  1.62408881049202 0.1295641306823014 0  1.951292139183444 0.04935777742416693 0  1.407307184020292 0.2221430743387344 0  1.498478881301172 0.2682877838485972 0  1.545787533967919 0.302650481723984 0  1.558999978228939 0.2029122529717547 0  1.659525410453526 0.2769752921592537 0  0.6538038431478345 0.2104929359414194 0  1.30404348374245 0.3883148704312415 0  1.845789242173316 0.4483746144361394 0  0.2308658283817455 0.03710709826295719 0  0.10452443332981 0.4501846772739207 0  0.9806771434047705 0.2079987726734625 0  0.9605136373889798 0.2898498522608313 0  0.9074025148547633 0.4628383668856181 0  1.451905251562428 0.4017323067335089 0  1.531616823881854 0.3620460669612369 0  0.2925974851452366 0.03682978417295436 0  1.182582445206602 0.2595528260572239 0  0.7062834286936848 0.1017853009993722 0  1.3375 0 0  1.086776767897589 0.3934893656846262 0  0.9055837011070633 0.3756548858868067 0  0.5125000000000001 0 0  1.006542194226091 0.278999553667738 0  1.942597485145237 0 0  1.933030399336109 0.02712999190189263 0  1.933030399336109 -0.02696438215812721 0  1.657402514854764 0 0  1.666969600663891 0.04468241471053585 0  1.666969600663891 -0.02696438215812721 0  1.142597485145237 0.5 0  1.152164570954364 0.4662312585476641 0  1.133030399336109 0.5269643821581271 0  0.05740251485476348 0 0  0.06696960066389074 0.02697701060907453 0  0.06696960066389074 -0.02696438215812717 0  0.3425974851452366 0 0  0.3521645709543638 0.03701042714885266 0  0.3330303993361093 -0.02696438215812716 0  0.8574025148547635 0.5 0  0.8478354290456362 0.4605814153758174 0  0.8669696006638907 0.5269643821581271 0  1.647835429045636 0.02541386350440913 0  </DataArray>
</Points>
<Cells>
<DataArray  type="UInt32"  Name="connectivity"  format="ascii">160 248 271  69 265 348  32 134 351  163 251 269  117 225 338  134 165 293  199 294 362  23 24 41  157 247 268  29 143 261  33 372 373  12 157 268  164 251 269  167 246 273  8 9 33  13 268 383  131 171 353  82 143 274  163 219 274  161 250 270  9 33 372  165 249 272  6 7 43  166 249 272  62 285 300  24 41 369  7 43 375  137 204 349  8 297 303  226 355 382  14 15 34  23 118 132  133 317 370  20 270 368  43 375 376  3 271 380  63 319 320  42 366 367  21 22 42  40 358 379  4 5 44  208 358 379  79 121 215  187 220 334  56 170 286  55 190 191  40 378 379  68 113 177  78 170 340  131 353 365  193 196 301  142 213 342  28 355 382  67 130 227  131 304 354  79 207 215  76 189 296  77 179 346  170 286 340  178 216 304  83 188 289  81 130 225  78 169 340  81 225 338  99 173 284  6 43 214  128 134 293  126 320 337  64 139 239  65 175 299  194 241 243  67 306 311  67 306 354  78 170 234  70 186 230  123 205 260  47 114 127  47 127 172  148 218 344  68 113 136  97 264 331  71 231 332  151 228 331  92 229 278  50 222 242  75 144 212  85 184 200  84 192 200  88 136 221  148 336 357  136 203 343  108 226 355  122 207 215  107 255 256  80 256 279  116 204 349  27 294 373  23 41 317  133 219 370  64 239 287  126 174 337  83 190 191  55 174 190  40 159 358  85 308 309  95 209 290  88 136 198  89 142 213  25 154 283  66 140 141  65 120 299  113 136 198  92 229 264  64 139 155  54 216 304  146 205 260  96 210 265  229 264 288  74 151 266  50 189 211  69 146 260  100 245 283  102 113 198  48 278 324  75 185 212  57 119 173  93 236 289  119 300 312  46 169 255  178 306 354  108 310 355  110 320 337  109 257 351  55 191 192  126 174 287  82 175 220  111 276 299  81 199 362  112 294 316  92 177 278  48 153 278  96 265 333  96 186 230  148 218 336  61 217 349  116 338 339  106 137 204  68 135 138  135 138 262  118 132 202  72 118 202  99 119 173  62 205 285  120 196 301  121 146 205  54 121 146  15 34 382  15 122 207  99 242 285  50 144 222  49 218 344  124 179 346  51 224 321  126 319 322  126 319 320  55 174 337  69 233 360  172 233 360  63 128 134  63 134 257  86 218 336  129 336 357  176 353 365  53 151 228  79 178 216  178 304 354  77 145 187  77 187 341  41 369 384  36 163 219  39 165 293  32 134 165  136 221 343  61 115 135  68 135 203  68 136 203  137 217 349  59 137 307  53 138 359  138 262 359  139 239 240  58 139 240  175 276 299  66 194 243  60 237 350  36 219 370  142 261 367  29 161 261  142 342 367  75 281 284  75 144 222  82 187 220  145 187 334  94 172 233  54 171 232  147 194 241  120 241 243  148 344 345  148 345 357  66 141 149  91 147 194  98 231 318  31 180 275  130 176 253  74 176 353  87 128 152  63 128 152  153 229 278  73 153 229  25 245 283  125 195 335  64 155 195  90 155 195  90 156 195  16 158 310  16 158 247  28 158 268  158 247 268  2 3 271  2 160 271  159 248 271  38 160 248  19 162 270  162 250 270  37 161 270  35 162 250  35 164 251  36 163 269  17 269 371  38 166 249  39 165 272  0 272 377  27 168 273  10 273 374  16 246 247  16 168 246  46 209 290  78 169 252  170 234 347  56 170 347  94 231 318  94 232 318  171 232 318  103 281 323  173 281 284  188 236 289  93 174 190  82 143 175  65 143 175  74 151 176  151 176 253  68 177 305  92 177 305  108 306 363  79 178 363  77 132 254  77 179 254  71 180 332  98 231 332  96 189 296  44 378 379  94 231 277  47 172 182  97 282 288  31 183 282  76 184 223  76 186 223  70 186 364  133 187 341  82 133 187  83 185 188  45 185 188  84 211 258  76 184 200  83 212 263  83 185 212  85 192 200  84 191 192  55 192 308  85 192 308  89 142 196  89 193 196  206 238 314  66 149 194  125 152 321  64 287 322  65 120 196  65 142 196  59 197 307  129 197 356  72 102 198  88 179 254  199 303 373  27 372 373  189 211 258  76 189 258  60 141 279  60 201 279  88 198 202  72 198 202  49 221 343  115 135 203  116 204 303  62 121 205  123 205 285  101 244 314  91 206 238  28 381 382  34 381 382  184 208 379  85 184 208  46 169 290  169 252 290  50 189 210  96 189 210  50 144 211  144 212 263  84 211 263  144 211 263  22 42 342  22 213 342  87 128 298  87 214 298  62 300 312  62 121 215  79 121 216  54 121 216  61 115 217  86 115 217  86 115 218  49 115 218  82 219 274  82 133 219  175 220 276  56 220 276  88 179 221  49 179 221  123 242 285  99 222 242  5 181 315  181 223 315  87 152 224  152 224 321  53 151 253  117 262 359  79 207 226  178 306 363  81 130 227  112 294 362  92 138 228  53 138 228  97 264 288  73 229 288  70 114 230  114 127 230  71 182 277  71 231 277  54 232 267  94 232 267  54 146 267  69 146 233  124 344 345  124 145 234  93 239 240  104 188 236  104 235 236  93 236 240  101 149 350  101 237 350  149 194 238  91 194 238  174 239 287  93 174 239  235 236 240  58 235 240  52 193 301  52 147 241  50 210 242  123 210 242  66 243 259  111 243 259  206 244 314  26 206 244  155 283 352  100 283 352  168 246 273  30 167 246  30 246 247  30 157 247  32 159 248  38 248 249  32 248 249  32 165 249  29 161 250  35 250 251  29 250 251  29 163 251  129 252 290  78 345 357  53 225 253  130 225 253  88 202 254  132 202 254  107 201 279  107 256 279  169 255 256  80 286 340  134 257 351  110 308 309  84 200 258  76 200 258  66 140 259  111 276 291  210 265 348  123 210 348  65 142 261  65 143 261  117 338 339  117 262 302  83 191 263  84 191 263  92 228 264  228 264 331  69 333 360  69 265 333  74 150 266  97 150 266  146 233 267  94 233 267  12 13 268  28 268 383  17 18 269  18 164 269  19 20 270  37 270 368  40 271 380  40 159 271  0 1 272  1 166 272  10 11 273  11 167 273  29 163 274  29 143 274  31 150 275  98 275 280  140 286 291  56 286 291  94 172 277  172 182 277  113 177 324  177 278 324  140 141 295  141 279 295  150 275 280  74 150 280  45 185 292  75 185 281  97 150 282  31 150 282  90 154 283  90 155 283  75 222 284  99 222 284  99 119 300  99 285 300  56 276 291  80 279 295  125 319 322  126 287 322  183 282 288  73 183 288  93 190 289  83 190 289  95 197 290  129 197 290  111 259 291  140 259 291  185 281 292  103 281 292  43 214 298  43 298 376  27 168 294  168 294 316  80 286 295  140 286 295  76 186 296  96 186 296  204 297 303  106 204 297  293 298 376  128 293 298  120 243 299  111 243 299  122 312 313  119 312 313  52 241 301  120 241 301  135 262 302  61 135 302  199 294 373  116 199 303  54 171 304  131 171 304  68 138 305  92 138 305  112 310 311  108 310 311  137 217 307  86 217 307  109 208 309  85 208 309  110 257 309  109 257 309  108 306 311  16 168 316  67 227 311  112 227 311  62 215 312  122 215 312  105 313 327  57 119 328  101 149 314  149 238 314  184 223 315  5 44 379  16 310 316  112 310 316  132 133 317  23 132 317  98 280 318  171 280 318  125 152 319  63 152 319  63 257 320  110 257 320  125 321 335  51 321 335  64 195 322  125 195 322  173 281 323  57 173 323  102 113 361  139 155 352  58 139 325  104 188 326  45 188 326  122 313 327  15 122 327  119 313 328  105 313 328  106 137 329  59 137 329  59 197 330  95 197 330  151 266 331  97 266 331  180 275 332  98 275 332  96 230 333  127 230 333  56 220 334  145 234 347  156 195 335  51 156 335  129 336 356  86 336 356  110 308 337  55 308 337  116 199 338  81 199 338  117 302 339  61 302 339  80 256 340  169 256 340  77 132 341  132 133 341  37 366 367  42 342 367  49 115 343  115 203 343  49 179 344  124 179 344  124 234 345  78 234 345  77 145 346  124 145 346  145 334 347  56 334 347  69 260 348  123 260 348  116 339 349  61 339 349  60 141 350  141 149 350  32 159 351  109 208 358  139 325 352  100 325 352  171 280 353  74 280 353  131 354 365  67 354 365  158 310 355  28 158 355  197 307 356  86 307 356  78 252 357  129 252 357  109 351 358  159 351 358  117 225 359  53 225 359  127 333 360  127 172 360  113 324 361  48 324 361  112 227 362  81 227 362  108 226 363  79 226 363  186 223 364  181 223 364  130 176 365  67 130 365  20 21 368  21 42 366  161 261 367  37 161 367  21 366 368  37 366 368  36 369 371  36 269 371  36 369 384  36 370 384  24 369 371  17 24 371  27 372 374  27 273 374  8 303 373  8 33 373  9 372 374  9 10 374  39 375 377  39 272 377  39 375 376  39 293 376  7 375 377  0 7 377  3 4 380  4 44 378  5 315 379  184 315 379  4 378 380  40 378 380  13 14 383  14 34 381  15 207 382  207 226 382  14 381 383  28 381 383  317 370 384  41 317 384  </DataArray>
<DataArray  type="UInt32"  Name="offsets"  format="ascii">3 6 9 12 15 18 21 24 27 30 33 36 39 42 45 48 51 54 57 60 63 66 69 72 75 78 81 84 87 90 93 96 99 102 105 108 111 114 117 120 123 126 129 132 135 138 141 144 147 150 153 156 159 162 165 168 171 174 177 180 183 186 189 192 195 198 201 204 207 210 213 216 219 222 225 228 231 234 237 240 243 246 249 252 255 258 261 264 267 270 273 276 279 282 285 288 291 294 297 300 303 306 309 312 315 318 321 324 327 330 333 336 339 342 345 348 351 354 357 360 363 366 369 372 375 378 381 384 387 390 393 396 399 402 405 408 411 414 417 420 423 426 429 432 435 438 441 444 447 450 453 456 459 462 465 468 471 474 477 480 483 486 489 492 495 498 501 504 507 510 513 516 519 522 525 528 531 534 537 540 543 546 549 552 555 558 561 564 567 570 573 576 579 582 585 588 591 594 597 600 603 606 609 612 615 618 621 624 627 630 633 636 639 642 645 648 651 654 657 660 663 666 669 672 675 678 681 684 687 690 693 696 699 702 705 708 711 714 717 720 723 726 729 732 735 738 741 744 747 750 753 756 759 762 765 768 771 774 777 780 783 786 789 792 795 798 801 804 807 810 813 816 819 822 825 828 831 834 837 840 843 846 849 852 855 858 861 864 867 870 873 876 879 882 885 888 891 894 897 900 903 906 909 912 915 918 921 924 927 930 933 936 939 942 945 948 951 954 957 960 963 966 969 972 975 978 981 984 987 990 993 996 999 1002 1005 1008 1011 1014 1017 1020 1023 1026 1029 1032 1035 1038 1041 1044 1047 1050 1053 1056 1059 1062 1065 1068 1071 1074 1077 1080 1083 1086 1089 1092 1095 1098 1101 1104 1107 1110 1113 1116 1119 1122 1125 1128 1131 1134 1137 1140 1143 1146 1149 1152 1155 1158 1161 1164 1167 1170 1173 1176 1179 1182 1185 1188 1191 1194 1197 1200 1203 1206 1209 1212 1215 1218 1221 1224 1227 1230 1233 1236 1239 1242 1245 1248 1251 1254 1257 1260 1263 1266 1269 1272 1275 1278 1281 1284 1287 1290 1293 1296 1299 1302 1305 1308 1311 1314 1317 1320 1323 1326 1329 1332 1335 1338 1341 1344 1347 1350 1353 1356 1359 1362 1365 1368 1371 1374 1377 1380 1383 1386 1389 1392 1395 1398 1401 1404 1407 1410 1413 1416 1419 1422 1425 1428 1431 1434 1437 1440 1443 1446 1449 1452 1455 1458 1461 1464 1467 1470 1473 1476 1479 1482 1485 1488 1491 1494 1497 1500 1503 1506 1509 1512 1515 1518 1521 1524 1527 1530 1533 1536 1539 1542 1545 1548 1551 1554 1557 1560 1563 1566 1569 1572 1575 1578 1581 1584 1587 1590 1593 1596 1599 1602 1605 1608 1611 1614 1617 1620 1623 1626 1629 1632 1635 1638 1641 1644 1647 1650 1653 1656 1659 1662 1665 1668 1671 1674 1677 1680 1683 1686 1689 1692 1695 1698 1701 1704 1707 1710 1713 1716 1719 1722 1725 1728 1731 1734 1737 1740 1743 1746 1749 1752 1755 1758 1761 1764 1767 1770 1773 1776 1779 1782 1785 1788 1791 1794 1797 1800 1803 1806 1809 1812 1815 1818 1821 1824 1827 1830 1833 1836 1839 1842 1845 1848 1851 1854 1857 1860 1863 1866 1869 1872 1875 1878 1881 1884 1887 1890 1893 1896 1899 1902 1905 1908 1911 1914 1917 1920 1923 1926 1929 1932 1935 1938 1941 1944 1947 1950 1953 1956 1959 1962 1965 1968 1971 1974 1977 1980 1983 1986 1989 1992 1995 1998 2001 2004 2007 2010 2013 2016 </DataArray>
<DataArray  type="UInt8"  Name="types"  format="ascii">5 5 5 5 5 5 5 5 5 5 5 5 5 5 5 5 5 5 5 5 5 5 5 5 5 5 5 5 5 5 5 5 5 5 5 5 5 5 5 5 5 5 5 5 5 5 5 5 5 5 5 5 5 5 5 5 5 5 5 5 5 5 5 5 5 5 5 5 5 5 5 5 5 5 5 5 5 5 5 5 5 5 5 5 5 5 5 5 5 5 5 5 5 5 5 5 5 5 5 5 5 5 5 5 5 5 5 5 5 5 5 5 5 5 5 5 5 5 5 5 5 5 5 5 5 5 5 5 5 5 5 5 5 5 5 5 5 5 5 5 5 5 5 5 5 5 5 5 5 5 5 5 5 5 5 5 5 5 5 5 5 5 5 5 5 5 5 5 5 5 5 5 5 5 5 5 5 5 5 5 5 5 5 5 5 5 5 5 5 5 5 5 5 5 5 5 5 5 5 5 5 5 5 5 5 5 5 5 5 5 5 5 5 5 5 5 5 5 5 5 5 5 5 5 5 5 5 5 5 5 5 5 5 5 5 5 5 5 5 5 5 5 5 5 5 5 5 5 5 5 5 5 5 5 5 5 5 5 5 5 5 5 5 5 5 5 5 5 5 5 5 5 5 5 5 5 5 5 5 5 5 5 5 5 5 5 5 5 5 5 5 5 5 5 5 5 5 5 5 5 5 5 5 5 5 5 5 5 5 5 5 5 5 5 5 5 5 5 5 5 5 5 5 5 5 5 5 5 5 5 5 5 5 5 5 5 5 5 5 5 5 5 5 5 5 5 5 5 5 5 5 5 5 5 5 5 5 5 5 5 5 5 5 5 5 5 5 5 5 5 5 5 5 5 5 5 5 5 5 5 5 5 5 5 5 5 5 5 5 5 5 5 5 5 5 5 5 5 5 5 5 5 5 5 5 5 5 5 5 5 5 5 5 5 5 5 5 5 5 5 5 5 5 5 5 5 5 5 5 5 5 5 5 5 5 5 5 5 5 5 5 5 5 5 5 5 5 5 5 5 5 5 5 5 5 5 5 5 5 5 5 5 5 5 5 5 5 5 5 5 5 5 5 5 5 5 5 5 5 5 5 5 5 5 5 5 5 5 5 5 5 5 5 5 5 5 5 5 5 5 5 5 5 5 5 5 5 5 5 5 5 5 5 5 5 5 5 5 5 5 5 5 5 5 5 5 5 5 5 5 5 5 5 5 5 5 5 5 5 5 5 5 5 5 5 5 5 5 5 5 5 5 5 5 5 5 5 5 5 5 5 5 5 5 5 5 5 5 5 5 5 5 5 5 5 5 5 5 5 5 5 5 5 5 5 5 5 5 5 5 5 5 5 5 5 5 5 5 5 5 5 5 5 5 5 5 5 5 5 5 5 5 5 5 5 5 5 5 5 5 5 5 5 5 5 5 5 5 5 5 5 5 5 5 5 5 5 5 5 5 5 5 5 5 5 5 5 5 5 5 5 5 5 5 5 5 5 5 5 5 5 5 5 5 5 5 5 5 5 5 5 5 </DataArray>
</Cells>
<CellData  Scalars="f">
<DataArray  type="Float64"  Name="f"  format="ascii">1 0 0 1 0 0 0 1 1 0 0 1 1 1 1 1 0 0 0 1 1 1 1 1 0 1 1 0 0 0 1 0 0 1 0 1 0 0 1 0 1 0 0 0 0 0 0 0 0 0 0 0 0 0 0 0 0 0 0 0 0 0 0 0 0 0 0 0 0 0 0 0 0 0 0 0 0 0 0 0 0 0 0 0 0 0 0 0 0 0 0 0 0 0 0 0 0 0 0 0 0 0 0 0 0 0 0 0 0 0 0 0 0 0 0 0 0 0 0 0 0 0 0 0 0 0 0 0 0 0 0 0 0 0 0 0 0 0 0 0 0 0 0 0 0 0 0 0 0 0 0 0 0 0 0 0 0 0 0 0 0 0 0 0 0 0 0 0 0 0 0 0 0 0 0 0 0 0 0 0 0 0 0 0 0 0 0 0 0 0 0 0 0 0 0 0 0 0 0 0 0 0 0 0 0 0 0 0 0 0 0 0 0 0 0 0 0 0 0 0 0 0 0 0 0 1 1 1 1 1 1 1 1 1 1 1 1 1 1 1 1 1 1 1 1 1 0 0 0 0 0 0 0 0 0 0 0 0 0 0 0 0 0 0 0 0 0 0 0 0 0 0 0 0 0 0 0 0 0 0 0 0 0 0 0 0 0 0 0 0 0 0 0 0 0 0 0 0 0 0 0 0 0 0 0 0 0 0 0 0 0 0 0 0 0 0 0 0 0 0 0 0 0 0 0 0 0 0 0 0 0 0 0 0 0 0 0 0 0 0 0 0 0 0 0 0 0 0 0 0 0 0 0 0 0 0 0 0 0 0 0 0 0 0 0 0 0 0 0 0 0 0 0 0 0 0 0 0 0 0 0 0 0 0 0 0 0 0 0 0 0 0 0 0 0 1 1 1 1 1 1 1 1 1 1 1 1 0 0 0 0 0 0 0 0 0 0 0 0 0 0 0 0 0 0 0 0 0 0 0 0 0 0 0 0 0 0 0 0 1 1 1 1 1 1 1 1 1 1 1 1 0 0 0 0 0 0 0 0 0 0 0 0 0 0 0 0 0 0 0 0 0 0 0 0 0 0 0 0 0 0 0 0 0 0 0 0 0 0 0 0 0 0 0 0 0 0 0 0 0 0 0 0 0 0 0 0 0 0 0 0 0 0 0 0 0 0 0 0 0 0 0 0 0 0 0 0 0 0 0 0 0 0 0 0 0 0 0 0 0 0 0 0 0 0 0 0 0 0 0 0 0 0 0 0 0 0 0 0 0 0 0 0 0 0 0 0 0 0 0 0 0 0 0 0 0 0 0 0 0 0 0 0 0 0 0 0 0 0 0 0 0 0 0 0 0 0 0 0 0 0 0 0 0 0 0 0 0 0 0 0 0 0 0 0 0 0 0 0 0 0 0 0 0 0 0 0 0 0 0 0 0 0 0 1 1 0 0 1 1 1 1 0 0 1 1 1 1 0 0 1 1 1 1 0 0 1 1 1 1 0 0 1 1 1 1 0 0 1 1 0 0 </DataArray>
</CellData>
</Piece>
</UnstructuredGrid>
</VTKFile>