<?xml version="1.0"?>
<VTKFile type="UnstructuredGrid"  version="0.1"  >
<UnstructuredGrid>
<Piece  NumberOfPoints="90" NumberOfCells="134">
<Points>
<DataArray  type="Float64"  NumberOfComponents="3"  format="ascii">-0.09999999999999999 -0.05 0  -0.09999999999999999 -0.1 0  0.09999999999999999 -0.1 0  0.09999999999999999 -0.05 0  0.1146446609406726 -0.01464466094067262 0  0.15 0 0  -0.15 0 0  -0.1146446609406726 -0.01464466094067263 0  0 0 0  -0.07346331352698202 0 0  0.07346331352698204 0 0  -0.111731656763491 0 0  0.111731656763491 0 0  0 -0.1 0  0.03794607648306034 -0.05089215296612071 0  -0.03794607648306035 -0.05089215296612073 0  0.05 -0.1 0  -0.05 -0.1 0  -3.636407278761077e-18 -0.06078543864788015 0  0.03673165676349102 0 0  -0.03673165676349101 0 0  0.075 -0.1 0  0.09999999999999999 -0.07500000000000001 0  -0.06924328685822595 -0.06924328685822598 0  -0.06861292790877527 -0.03445463165591749 0  0.06914633822015431 -0.0625 0  0.025 -0.1 0  -0.025 -0.1 0  -0.01836582838174551 -0.02589882274034675 0  0.01836582838174551 -0.02589882274034673 0  0.07453510640116531 -0.03147312066034821 0  -0.04438928866126845 -0.02489167540355715 0  0.04491610925060098 -0.02526526367931219 0  0.02353976855362401 -0.0733546649807495 0  -0.03750000000000001 -0.07703493676911202 0  -0.08960227917810507 -0.01984070401068014 0  -0.09999999999999999 -0.07500000000000001 0  -0.075 -0.1 0  0.04812245984141807 -0.07540362259950927 0  -0.0125 -0.08039271932394007 0  0.09259748514523652 0 0  0.1073223304703363 -0.03232233047033631 0  0.05681370613041177 -0.0422624903376782 0  0.01675408740002257 -0.04732792479280928 0  3.469446951953614e-18 -0.0352926416285361 0  -0.01745878057042224 -0.04677585482105744 0  -0.05509748514523651 0 0  -0.09259748514523651 0 0  -0.1308658283817455 0 0  -0.1323223304703363 -0.007322330470336319 0  0.1308658283817455 0 0  0.1323223304703363 -0.007322330470336307 0  -0.1073223304703363 -0.03232233047033631 0  0.05509748514523653 0 0  0.08001093363201395 -0.08001093363201398 0  -0.06428039933610927 -0.01627599076579245 0  0.06201003894812814 -0.01746968866852002 0  0.01836582838174551 0 0  -0.0183658283817455 0 0  0.006530466061334578 -0.08204857882453138 0  0.06282166645097073 -0.08632447703187271 0  -0.0231294003666159 -0.06478648460751722 0  0.08303039933610928 -0.01542901013460223 0  -0.07963716906137533 -0.05165491459424672 0  -0.05830084672634599 -0.05204152171240164 0  -0.0625 -0.08642251990503944 0  -0.08749999999999999 -0.1 0  -0.09999999999999999 -0.08750000000000001 0  -0.08229361893076469 -0.0822936189307647 0  -0.002559503441756994 -0.01764632081426805 0  0.0375 -0.1 0  -0.08869683007689619 -0.03702487414472674 0  0.08657312149421498 -0.06381353164512123 0  0.08286963842034323 -0.04678142249408153 0  0.05285623370776577 -0.05855062868526655 0  0.09098021286551494 -0.02990957212300891 0  -0.05212311105880463 -0.06805257409242119 0  -0.02754874257261826 -0.01294941137017337 0  -0.03010680232232736 -0.03686715511373542 0  0.02930331352871151 -0.03749662344722707 0  0.02754874257261827 -0.01294941137017337 0  0.09886534966707844 -0.0161581394982314 0  -0.09999999999999999 -0.0625 0  -0.08480930801100153 -0.0667275977779891 0  -0.05345682539556827 -0.03738453571485188 0  0.03125 -0.08629480457428818 0  0.1234834957055045 -0.01098349570550446 0  0.1212987425726183 0 0  -0.1212987425726182 0 0  -0.1234834957055045 -0.01098349570550447 0  </DataArray>
</Points>
<Cells>
<DataArray  type="UInt32"  Name="connectivity"  format="ascii">28 44 45  18 43 44  24 63 64  9 46 55  25 42 73  27 34 39  30 42 73  15 45 61  16 70 85  29 79 80  25 72 73  15 64 84  29 43 44  14 38 74  25 54 72  21 54 60  24 63 71  20 58 77  19 32 53  32 53 56  13 27 39  13 39 59  15 78 84  17 27 34  24 64 84  28 77 78  41 75 81  31 78 84  29 57 80  14 32 79  14 33 38  18 44 45  23 63 64  17 37 65  7 11 47  37 66 68  0 63 71  66 67 68  25 38 60  25 54 60  18 33 59  18 39 59  4 41 81  4 12 81  62 75 81  3 72 73  14 32 42  25 38 74  18 33 43  14 33 43  29 44 69  28 44 69  18 39 61  18 45 61  31 46 55  20 31 46  7 35 47  9 35 47  7 88 89  6 48 49  12 86 87  5 50 51  24 35 71  7 35 52  10 40 62  10 53 56  2 21 54  2 22 54  9 35 55  24 35 55  32 42 56  30 42 56  29 57 69  19 57 80  28 69 77  8 57 69  13 26 59  26 70 85  16 38 60  16 21 60  15 34 61  34 39 61  10 56 62  30 56 62  36 67 68  15 34 76  15 64 76  17 34 65  23 64 76  1 66 67  23 63 83  36 82 83  37 65 68  23 65 68  8 58 69  58 69 77  33 59 85  26 59 85  35 52 71  0 52 71  22 54 72  3 22 72  30 73 75  30 62 75  25 42 74  14 42 74  3 73 75  3 41 75  23 65 76  34 65 76  20 31 77  31 77 78  15 45 78  28 45 78  29 43 79  14 43 79  32 79 80  19 32 80  12 40 81  40 62 81  63 82 83  0 63 82  36 68 83  23 68 83  31 55 84  24 55 84  16 38 85  33 38 85  4 12 86  51 86 87  50 51 87  7 11 88  48 88 89  48 49 89  </DataArray>
<DataArray  type="UInt32"  Name="offsets"  format="ascii">3 6 9 12 15 18 21 24 27 30 33 36 39 42 45 48 51 54 57 60 63 66 69 72 75 78 81 84 87 90 93 96 99 102 105 108 111 114 117 120 123 126 129 132 135 138 141 144 147 150 153 156 159 162 165 168 171 174 177 180 183 186 189 192 195 198 201 204 207 210 213 216 219 222 225 228 231 234 237 240 243 246 249 252 255 258 261 264 267 270 273 276 279 282 285 288 291 294 297 300 303 306 309 312 315 318 321 324 327 330 333 336 339 342 345 348 351 354 357 360 363 366 369 372 375 378 381 384 387 390 393 396 399 402 </DataArray>
<DataArray  type="UInt8"  Name="types"  format="ascii">5 5 5 5 5 5 5 5 5 5 5 5 5 5 5 5 5 5 5 5 5 5 5 5 5 5 5 5 5 5 5 5 5 5 5 5 5 5 5 5 5 5 5 5 5 5 5 5 5 5 5 5 5 5 5 5 5 5 5 5 5 5 5 5 5 5 5 5 5 5 5 5 5 5 5 5 5 5 5 5 5 5 5 5 5 5 5 5 5 5 5 5 5 5 5 5 5 5 5 5 5 5 5 5 5 5 5 5 5 5 5 5 5 5 5 5 5 5 5 5 5 5 5 5 5 5 5 5 5 5 5 5 5 5 </DataArray>
</Cells>
<CellData  Scalars="f">
<DataArray  type="Float64"  Name="f"  format="ascii">18446744073709551615 18446744073709551615 18446744073709551615 18446744073709551615 18446744073709551615 18446744073709551615 18446744073709551615 18446744073709551615 18446744073709551615 18446744073709551615 18446744073709551615 18446744073709551615 18446744073709551615 18446744073709551615 18446744073709551615 18446744073709551615 18446744073709551615 18446744073709551615 18446744073709551615 18446744073709551615 18446744073709551615 18446744073709551615 18446744073709551615 18446744073709551615 18446744073709551615 18446744073709551615 18446744073709551615 18446744073709551615 18446744073709551615 18446744073709551615 18446744073709551615 18446744073709551615 18446744073709551615 18446744073709551615 18446744073709551615 18446744073709551615 18446744073709551615 18446744073709551615 18446744073709551615 18446744073709551615 18446744073709551615 18446744073709551615 18446744073709551615 18446744073709551615 18446744073709551615 18446744073709551615 18446744073709551615 18446744073709551615 18446744073709551615 18446744073709551615 18446744073709551615 18446744073709551615 18446744073709551615 18446744073709551615 18446744073709551615 18446744073709551615 18446744073709551615 18446744073709551615 18446744073709551615 18446744073709551615 18446744073709551615 18446744073709551615 18446744073709551615 18446744073709551615 18446744073709551615 18446744073709551615 18446744073709551615 18446744073709551615 18446744073709551615 18446744073709551615 18446744073709551615 18446744073709551615 18446744073709551615 18446744073709551615 18446744073709551615 18446744073709551615 18446744073709551615 18446744073709551615 18446744073709551615 18446744073709551615 18446744073709551615 18446744073709551615 18446744073709551615 18446744073709551615 18446744073709551615 18446744073709551615 18446744073709551615 18446744073709551615 18446744073709551615 18446744073709551615 18446744073709551615 18446744073709551615 18446744073709551615 18446744073709551615 18446744073709551615 18446744073709551615 18446744073709551615 18446744073709551615 18446744073709551615 18446744073709551615 18446744073709551615 18446744073709551615 18446744073709551615 18446744073709551615 18446744073709551615 18446744073709551615 18446744073709551615 18446744073709551615 18446744073709551615 18446744073709551615 18446744073709551615 18446744073709551615 18446744073709551615 18446744073709551615 18446744073709551615 18446744073709551615 18446744073709551615 18446744073709551615 18446744073709551615 18446744073709551615 18446744073709551615 18446744073709551615 18446744073709551615 18446744073709551615 18446744073709551615 18446744073709551615 18446744073709551615 18446744073709551615 18446744073709551615 18446744073709551615 18446744073709551615 18446744073709551615 18446744073709551615 18446744073709551615 </DataArray>
</CellData>
</Piece>
</UnstructuredGrid>
</VTKFile>