<?xml version="1.0"?>
<VTKFile type="UnstructuredGrid"  version="0.1"  >
<UnstructuredGrid>
<Piece  NumberOfPoints="64" NumberOfCells="90">
<Points>
<DataArray  type="Float64"  NumberOfComponents="3"  format="ascii">-0.15 -0.05 0  -0.15 -0.1 0  0.15 -0.1 0  0.15 -0.05 0  0.1646446609406726 -0.01464466094067262 0  0.2 0 0  -0.2 0 0  -0.1646446609406726 -0.01464466094067263 0  0 0 0  0 -0.1 0  -0.123463313526982 0 0  0.1234633135269821 0 0  -0.161731656763491 0 0  0.161731656763491 0 0  0.06173165676349104 0 0  0.07500000000000001 -0.1 0  -0.06173165676349102 0 0  -0.07500000000000001 -0.1 0  0.03086582838174552 -0.05000000000000001 0  -0.03750000000000001 -0.05409538405248179 0  0.09421131847759362 -0.04756697771639042 0  -0.09421131847759365 -0.04756697771639045 0  0.1125 -0.1 0  -0.1125 -0.1 0  -0.03750000000000001 -0.1 0  0.03750000000000001 -0.1 0  -0.002609349250373354 -0.06386221186008513 0  0.06319751867736503 -0.06593960367999291 0  0.06458708882422486 -0.03292261785106455 0  -0.03086582838174551 0 0  -0.01235689087230174 -0.03147952288367773 0  0.15 -0.07500000000000001 0  -0.1212881579675032 -0.06752861847562741 0  0.1215074630393045 -0.06250000000000001 0  0.1248179709077756 -0.03132299492582297 0  0.03086582838174552 0 0  0.09259748514523657 0 0  -0.09259748514523652 0 0  -0.06778852870108747 -0.06762173741667678 0  -0.06385187908070752 -0.03342463342793665 0  -0.1228209117455062 -0.03238290158296719 0  0.08995402131380363 -0.07574311435147063 0  -0.09375000000000001 -0.07883167176757461 0  0.02226544706092058 -0.0765812504439002 0  0.01543291419087276 -0.02422302891383937 0  -0.03836360248093143 -0.02558953639782386 0  -0.01875 -0.1 0  -0.15 -0.07500000000000001 0  0.04031801650359267 -0.02683248564759113 0  -0.02472375121668346 -0.07565843272473413 0  -0.09980746908232678 -0.02356624816124085 0  0.08743655077873386 -0.02398596371326181 0  -0.1425974851452365 0 0  -0.1573223304703363 -0.03232233047033631 0  0.13125 -0.1 0  -0.05625000000000001 -0.1 0  -0.07871443396912454 -0.01713350948356698 0  -0.04671981907061328 -0.07412471799572189 0  0.1425974851452366 0 0  0.00934368141131214 -0.04537711038261866 0  -0.13125 -0.1 0  0.1080303993361093 -0.0158688269176003 0  0.1573223304703363 -0.03232233047033631 0  0.04465984652715561 -0.07867769255698612 0  </DataArray>
</Points>
<Cells>
<DataArray  type="UInt32"  Name="connectivity"  format="ascii">20 33 41  6 7 12  21 38 39  21 39 56  10 40 50  3 33 34  4 5 13  18 44 48  0 32 40  8 30 44  19 26 30  20 51 61  17 23 42  3 31 33  15 22 41  9 46 49  17 38 42  18 27 28  9 26 43  26 30 59  9 25 43  25 43 63  20 27 28  14 36 51  19 38 39  8 35 44  8 29 30  19 39 45  2 31 54  21 38 42  21 32 40  20 33 34  22 33 41  11 34 58  35 44 48  18 28 48  11 36 61  36 51 61  10 37 50  21 40 50  24 46 49  16 29 45  16 39 45  7 12 52  20 27 41  15 27 41  21 32 42  23 32 42  18 27 63  18 43 63  30 44 59  18 44 59  19 30 45  29 30 45  24 49 57  24 55 57  23 32 60  0 32 47  14 28 48  14 35 48  9 26 49  19 26 49  21 50 56  37 50 56  14 28 51  20 28 51  0 40 53  10 40 52  40 52 53  7 52 53  31 33 54  22 33 54  38 55 57  17 38 55  16 39 56  16 37 56  19 49 57  19 38 57  4 58 62  4 13 58  26 43 59  18 43 59  32 47 60  1 47 60  20 34 61  11 34 61  34 58 62  3 34 62  15 25 63  15 27 63  </DataArray>
<DataArray  type="UInt32"  Name="offsets"  format="ascii">3 6 9 12 15 18 21 24 27 30 33 36 39 42 45 48 51 54 57 60 63 66 69 72 75 78 81 84 87 90 93 96 99 102 105 108 111 114 117 120 123 126 129 132 135 138 141 144 147 150 153 156 159 162 165 168 171 174 177 180 183 186 189 192 195 198 201 204 207 210 213 216 219 222 225 228 231 234 237 240 243 246 249 252 255 258 261 264 267 270 </DataArray>
<DataArray  type="UInt8"  Name="types"  format="ascii">5 5 5 5 5 5 5 5 5 5 5 5 5 5 5 5 5 5 5 5 5 5 5 5 5 5 5 5 5 5 5 5 5 5 5 5 5 5 5 5 5 5 5 5 5 5 5 5 5 5 5 5 5 5 5 5 5 5 5 5 5 5 5 5 5 5 5 5 5 5 5 5 5 5 5 5 5 5 5 5 5 5 5 5 5 5 5 5 5 5 </DataArray>
</Cells>
<CellData  Scalars="f">
<DataArray  type="Float64"  Name="f"  format="ascii">18446744073709551615 18446744073709551615 18446744073709551615 18446744073709551615 18446744073709551615 18446744073709551615 18446744073709551615 18446744073709551615 18446744073709551615 18446744073709551615 18446744073709551615 18446744073709551615 18446744073709551615 18446744073709551615 18446744073709551615 18446744073709551615 18446744073709551615 18446744073709551615 18446744073709551615 18446744073709551615 18446744073709551615 18446744073709551615 18446744073709551615 18446744073709551615 18446744073709551615 18446744073709551615 18446744073709551615 18446744073709551615 18446744073709551615 18446744073709551615 18446744073709551615 18446744073709551615 18446744073709551615 18446744073709551615 18446744073709551615 18446744073709551615 18446744073709551615 18446744073709551615 18446744073709551615 18446744073709551615 18446744073709551615 18446744073709551615 18446744073709551615 18446744073709551615 18446744073709551615 18446744073709551615 18446744073709551615 18446744073709551615 18446744073709551615 18446744073709551615 18446744073709551615 18446744073709551615 18446744073709551615 18446744073709551615 18446744073709551615 18446744073709551615 18446744073709551615 18446744073709551615 18446744073709551615 18446744073709551615 18446744073709551615 18446744073709551615 18446744073709551615 18446744073709551615 18446744073709551615 18446744073709551615 18446744073709551615 18446744073709551615 18446744073709551615 18446744073709551615 18446744073709551615 18446744073709551615 18446744073709551615 18446744073709551615 18446744073709551615 18446744073709551615 18446744073709551615 18446744073709551615 18446744073709551615 18446744073709551615 18446744073709551615 18446744073709551615 18446744073709551615 18446744073709551615 18446744073709551615 18446744073709551615 18446744073709551615 18446744073709551615 18446744073709551615 18446744073709551615 </DataArray>
</CellData>
</Piece>
</UnstructuredGrid>
</VTKFile>