<?xml version="1.0"?>
<VTKFile type="UnstructuredGrid"  version="0.1"  >
<UnstructuredGrid>
<Piece  NumberOfPoints="1035" NumberOfCells="1917">
<Points>
<DataArray  type="Float64"  NumberOfComponents="3"  format="ascii">1.925 0.05625 0  1.925 0.04375 0  1.975 0.04375 0  1.975 0.05625 0  1.825 0.05625 0  1.825 0.04375 0  1.875 0.04375 0  1.875 0.05625 0  1.725 0.05625 0  1.725 0.04375 0  1.775 0.04375 0  1.775 0.05625 0  1.625 0.05625 0  1.625 0.04375 0  1.675 0.04375 0  1.675 0.05625 0  1.525 0.05625 0  1.525 0.04375 0  1.575 0.04375 0  1.575 0.05625 0  1.225 0.45625 0  1.225 0.44375 0  1.275 0.44375 0  1.275 0.45625 0  1.125 0.45625 0  1.125 0.44375 0  1.175 0.44375 0  1.175 0.45625 0  1.025 0.45625 0  1.025 0.44375 0  1.075 0.44375 0  1.075 0.45625 0  0.9249999999999999 0.45625 0  0.9249999999999999 0.44375 0  0.975 0.44375 0  0.975 0.45625 0  0.825 0.45625 0  0.825 0.44375 0  0.875 0.44375 0  0.875 0.45625 0  0.725 0.45625 0  0.725 0.44375 0  0.775 0.44375 0  0.775 0.45625 0  0.425 0.05625 0  0.425 0.04375 0  0.475 0.04375 0  0.475 0.05625 0  0.325 0.05625 0  0.325 0.04375 0  0.375 0.04375 0  0.375 0.05625 0  0.225 0.05625 0  0.225 0.04375 0  0.275 0.04375 0  0.275 0.05625 0  0.125 0.05625 0  0.125 0.04375 0  0.175 0.04375 0  0.175 0.05625 0  0.025 0.05625 0  0.025 0.04375 0  0.07500000000000001 0.04375 0  0.07500000000000001 0.05625 0  0.15 -0.05 0  0.15 -0.1 0  0.35 -0.1 0  0.35 -0.05 0  0.3646446609406726 -0.01464466094067262 0  0.4 0 0  0.5 0 0  0.5 0.1 0  0 0.1 0  0 0 0  0.1 0 0  0.1353553390593274 -0.01464466094067263 0  0.7 0.5 0  0.7 0.4 0  1.3 0.4 0  1.3 0.5 0  1.15 0.5 0  1.114644660940673 0.5146446609406726 0  1.1 0.55 0  1.1 0.6 0  0.9 0.6 0  0.9 0.55 0  0.8853553390593274 0.5146446609406726 0  0.85 0.5 0  1.65 -0.05 0  1.65 -0.1 0  1.85 -0.1 0  1.85 -0.05 0  1.864644660940673 -0.01464466094067262 0  1.9 0 0  2 0 0  2 0.1 0  1.5 0.1 0  1.5 0 0  1.6 0 0  1.635355339059327 -0.01464466094067263 0  0 0.5 0  2 0.5 0  1.75 0.1 0  0.5 0.05 0  0 0.05 0  1 0.4 0  0.7 0.45 0  1.3 0.45 0  1.225 0.5 0  0.7749999999999999 0.5 0  2 0.05 0  0.25 0.1 0  1.5 0.05 0  1.875 0.1 0  1.625 0.1 0  1 0 0  1.15 0.4 0  0.85 0.4 0  0.125 0.1 0  0.375 0.1 0  1.9375 0.1 0  1.8125 0.1 0  1.5625 0.1 0  1.6875 0.1 0  1.225 0.4 0  1.075 0.4 0  0.7749999999999999 0.4 0  0.925 0.4 0  0.0625 0.1 0  0.1875 0.1 0  0.4375 0.1 0  0.3125 0.1 0  0.35 0.5 0  1.65 0.5 0  0.75 0 0  1.25 0 0  0.175 0.5 0  0 0.3 0  1.825 0.5 0  2 0.3 0  0.4889999999999999 0.3240000000000001 0  0.8875 0.1859375 0  1.1125 0.1859375 0  1.511 0.324 0  0.28125 0.3046875 0  1.71875 0.3046875 0  1.317839363170347 0.1952262421135645 0  0.6824922989623865 0.1937307474059662 0  0.5249999999999999 0.5 0  1.475 0.5 0  0.1397595137420719 0.3542729254756871 0  1.858492268041237 0.2493798324742268 0  1.891114090996194 0.3812873296216695 0  0.15625 0.2257508917777052 0  0.625 0 0  1.375 0 0  0.40625 0.2251049107142857 0  1.607216430534997 0.2319583619687038 0  0.875 0 0  1.125 0 0  1.211555754201263 0.2704722952372923 0  0.8125 0.2831147354014599 0  0.9999999999999998 0.2634067062043797 0  0.5562349522048834 0.2150316271172041 0  0.6357611659109287 0.3015748226014914 0  1.384685972003155 0.3042136854298106 0  1.435339436767618 0.1981521250340491 0  1.218344435556106 0.1203999292347677 0  0.8125 0.09759059873949578 0  0.5862510293299451 0.404064301327404 0  0.9999999999999998 0.1270023634453781 0  1.5625 0.5 0  1.620981129822047 0.3800291076973605 0  0.3790188701779529 0.3800291076973606 0  0.2379041800602883 0.4076636239527968 0  1.7375 0.5 0  1.104587466335882 0.2948672842486216 0  1.434386643784329 0.400010904410431 0  0 0.2 0  2 0.2 0  1.378820276847793 0.1070997486680121 0  0.2576904130619342 0.2035551373187887 0  1.706325764667107 0.2018550836386096 0  1.75 -0.1 0  1 0.6 0  0.25 -0.1 0  0.6051071338676985 0.1198782539308636 0  0.7097341915851944 0.09459620728155076 0  0 0.4 0  0.08749999999999999 0.5 0  2 0.4 0  1.716919851969401 0.4034194442109375 0  0.9095587743115197 0.0912030448564982 0  0.4374999999999999 0.5 0  1.810111645358113 0.3313323363856588 0  0.9093239231628456 0.3025056842272159 0  1.12855529710778 0.09362792963749789 0  0.7927646158614563 0.1903526670704778 0  1.535200406348388 0.4124534322332843 0  0.4647995936516121 0.4124534322332843 0  0.7262554107726816 0.3126881060391923 0  1.29385393118661 0.3092370156738959 0  1.526617204200245 0.1879094309509875 0  1.9125 0.5 0  0.6124999999999999 0.5 0  1.3875 0.5 0  0.2625 0.5 0  0.08732005301128176 0.2822255373231005 0  1.813802944936616 0.4159974360455985 0  1.90625 0.179055426762338 0  1.295480105083921 0.07631904201107265 0  1.776173416646069 0.2455828324617562 0  1.052124204819729 0.06350118172268913 0  0.08314215524143959 0.1824325970258998 0  0.3645958242513654 0.2976386438076649 0  0.34375 0.1742613782254498 0  0.46875 0.1742613782254498 0  1.8277001247614 0.1770902144672231 0  0.08259792326838619 0.4160080671401621 0  1.1875 0 0  1.939614960150005 0.25 0  0.4876547669691238 0.2479433516107648 0  1.19092061344538 0.1943491133639654 0  0.2129874694679908 0.3365645567605458 0  0.1567097967617912 0.4272984760088865 0  1.588209480813283 0.3084004115790788 0  0.5592194988901882 0.2920997540876868 0  1.0375 0.3327166336400727 0  1.487637908104215 0.2523776924929376 0  1.027901785714286 0.5308035714285715 0  0.2779017857142857 -0.03080357142857143 0  1.777901785714286 -0.03080357142857144 0  0.3151653224076805 0.4280790720625429 0  1.168756962162846 0.3295234200864151 0  1.367191293782823 0.425 0  0.3179885097909652 0.2428185946506164 0  0.05525362682807256 0.3480682903641584 0  0.2178040625531614 0.2641665749896864 0  1.931284073038049 0.3215247493816797 0  1.592320938634953 0.1634503048594586 0  0.7391107863118056 0.2404300893851613 0  0.9640418144285923 0.1952045348248789 0  1.03828311171483 0.1907665338898573 0  0.5625 0 0  1.4375 0 0  1.434406041305029 0.06792994836871344 0  0.4047091778037926 0.4417451657763865 0  1.60625 0.4470873374280713 0  1.652835268961804 0.2838852861125848 0  0.968520705076875 0.3383633061432367 0  1.938087483892823 0.4341077984062202 0  1.070126821264438 0.1298444448878155 0  1.146027325928063 0.2431251569917195 0  1.443238177928612 0.1329810756186796 0  1.273619820642345 0.2454517928151241 0  1.8727955424459 0.4466676197704867 0  0.144720914794739 0.161857581637346 0  0.1516864507370299 0.2904843017281448 0  1.714723903403643 -0.04555219319271324 0  0.9647239034036433 0.5455521931927132 0  0.211202019110897 -0.0220866152887176 0  0.4328041531634848 0.2869537291168379 0  0.9728298217570102 0.063501181722689 0  0.5451284530929481 0.1491997399535159 0  0.6162136329796337 0.1857101410945519 0  0.2895080944586197 0.3687744429477401 0  1.341750750059536 0.3515832389346363 0  1.375641205532954 0.234767575309129 0  1.444751559540476 0.3338422273502067 0  1.37688907990521 0.1709251542413986 0  0.59375 0.05640396532218669 0  0.6583769606067219 0.05535098291689117 0  1.254510715686016 0.1758716914625949 0  0.7365017523093009 0.1552621254080563 0  1.233224213042039 0.3312123716681958 0  0.5236435083132435 0.3810155563421335 0  0.21875 0.1543838771604025 0  0.40625 0.1612687207586738 0  1.0625 0 0  0.8125 0 0  1.3125 0 0  0.9375 0 0  0.6875 0 0  1.21875 0.0561451531914653 0  1.765950179549217 0.1842639624677329 0  1.67831342925737 0.3533208805417159 0  0.4323587890178361 0.3487744537060739 0  1.078636941959972 0.2382299973669808 0  0.8125 0.3475728821662615 0  0.8420063834532494 0.228356758811999 0  0.6372101262555863 0.441680220947276 0  1.870505629542844 0.3240535515644318 0  1.550192759190401 0.2583637173885714 0  1.32193695807607 0.1328999195289147 0  0.9197592292763459 0.2402249515808653 0  1.64776864428658 0.1872678527852764 0  0.6857873721657025 0.2682159103169717 0  0 0.25 0  0.5373427190457616 0.4403593316171924 0  1.661084891520015 0.4239861270220243 0  1.156442100699449 0.1460292740584435 0  0 0.15 0  2 0.15 0  1.769802196712746 0.3755027993310504 0  0 0.45 0  0.04375 0.5 0  0.6030642503494791 0.2518099652148797 0  0.6763237910390439 0.3452768106841519 0  0.931147178445411 0.1461652756982713 0  0.2887375218332675 0.1537053706244743 0  1.558177316710844 0.3586297973800502 0  0.84375 0.04879529936974789 0  0.7621386337634271 0.0610348019982157 0  0.8384285265414047 0.1515873764702156 0  1.428555275697543 0.263188023835919 0  0.5711756747636345 0.3484585583856121 0  1.1125 0.3538238594862959 0  0.8705255601152057 0.3456934700182137 0  1.760838845163471 0.4445438062629496 0  0.2060275862872002 0.4535426186917414 0  1.723062444516319 0.1487405354022165 0  1.163389069096715 0.05018931811557627 0  1.327089695897519 0.2635919124818841 0  1.948044122097146 0.3761717807464886 0  1.415535555918383 0.4521588314281399 0  1.34375 0.04702637925968595 0  1.488309400497656 0.3777453016672654 0  1.471852517802967 0.4430357668431186 0  1.69375 0.5 0  0.6578964173371418 0.109206090398416 0  0.6242654800244544 0.3639117255960667 0  0.05567121248445504 0.2335666116841588 0  1.51875 0.5 0  0.1893916261844855 0.3847493057979278 0  0.48125 0.5 0  0.55621535123838 0.09587303205156968 0  1.396253090597469 0.3601413795122775 0  1.270205431019786 0.1261134456089319 0  0.2049308263849371 0.205332512972754 0  1.698189605041017 0.2550048538614296 0  0.3254938479686495 0.3315618715221949 0  1.05408962819384 0.283741034291944 0  0.2679479229437713 0.2537349122604314 0  1.898812753378263 0.2811963544224856 0  0.1057967071592966 0.2275495703332606 0  1.34375 0.5 0  1.633506078616799 0.3303699666199942 0  0.13125 0.5 0  0.8762042476645896 0.2649417942548087 0  1.8 -0.1 0  1.05 0.6 0  1.55 0 0  1.95 0 0  1.7 -0.1 0  0 0.35 0  2 0.35 0  0.05 0 0  0.3 -0.1 0  2 0.25 0  0.45 0 0  2 0.45 0  0.95 0.6 0  0.2 -0.1 0  0.7374999999999999 0.4 0  0.7611510190562684 0.3504690848007062 0  1.491426622286366 0.1505801380121626 0  0.5865340670064162 0.4555456997138927 0  1.711525094112363 0.4531947547604568 0  0.9523991700749173 0.2777084606998086 0  0.9196963620594245 0.3508453367496864 0  0.6498845134369121 0.2324887151424513 0 
[...]
<CellData  Scalars="f">
<DataArray  type="Float64"  Name="f"  format="ascii">1 1 1 1 1 1 1 1 97 97 97 97 1 1 1 1 1 1 1 1 1 1 1 1 1 1 1 1 1 1 1 1 92 92 92 92 1 1 1 1 1 1 1 1 1 1 1 1 1 1 1 1 0 1 1 1 1 1 1 1 1 87 87 87 87 1 1 1 1 1 1 1 1 1 1 1 1 1 1 1 1 1 1 1 1 1 1 1 1 1 1 1 1 82 82 82 82 0 1 1 1 1 1 1 1 1 1 1 1 1 1 1 1 1 1 1 1 1 77 77 77 77 1 1 1 1 1 1 1 1 1 1 1 1 1 1 1 1 1 1 1 1 1 1 1 1 0 1 1 1 1 66 66 66 66 1 1 1 1 1 1 1 1 1 1 1 1 1 1 1 1 1 1 1 1 1 1 1 1 61 61 61 61 1 1 1 1 1 1 1 1 1 1 1 1 1 1 1 1 1 1 1 1 1 1 1 1 56 56 56 56 1 1 1 1 1 1 1 1 1 1 1 1 1 1 1 1 1 1 1 1 51 51 51 51 1 1 1 1 1 1 1 1 1 1 1 1 1 1 1 1 1 1 1 1 1 1 1 1 1 1 1 1 46 46 46 46 1 1 1 1 1 1 1 1 1 1 1 1 1 1 1 1 1 1 1 1 1 1 1 1 41 41 41 41 22 22 22 22 1 1 1 1 1 1 1 1 0 1 1 1 1 0 1 1 1 1 0 0 1 1 1 1 1 1 1 1 1 1 1 1 1 1 1 1 1 1 1 1 17 17 17 17 1 1 1 1 1 1 1 1 1 1 1 1 0 0 0 0 1 1 1 1 1 1 1 1 1 1 1 1 12 12 12 12 1 1 1 1 1 1 1 1 0 0 1 1 1 1 7 7 7 7 1 1 1 1 1 1 1 1 1 1 1 1 1 1 1 1 1 1 1 1 1 1 1 1 1 1 1 1 2 2 2 2 1 1 1 1 1 1 1 1 1 1 1 1 1 1 1 1 1 1 1 1 1 1 1 1 1 1 1 1 1 1 1 1 1 1 1 1 1 1 1 1 1 1 1 1 1 1 1 1 1 1 1 1 1 1 1 1 1 1 1 1 1 1 1 1 1 1 1 1 1 1 1 1 1 1 1 1 1 1 1 1 1 1 1 1 1 1 1 1 1 1 1 1 1 1 1 1 1 1 1 1 1 1 1 1 1 1 1 1 1 1 1 1 1 1 1 1 1 1 1 1 1 1 1 1 1 1 1 1 1 1 1 1 1 1 1 1 1 1 1 1 1 1 1 1 1 1 1 1 1 1 1 1 1 1 1 1 1 1 1 1 1 1 1 1 1 1 1 1 1 1 1 1 1 1 1 1 1 1 1 1 0 0 0 1 1 1 1 1 1 1 1 0 1 1 1 1 1 1 1 1 1 1 1 1 1 1 1 1 1 1 1 1 1 1 1 1 1 1 1 1 1 1 1 1 0 1 1 1 1 0 0 0 1 1 1 1 1 1 1 1 0 0 0 1 1 1 1 1 1 1 1 0 0 0 1 1 1 1 1 1 1 1 0 0 0 1 1 1 1 1 1 1 1 0 1 1 1 1 0 0 0 1 1 1 1 1 1 1 1 0 1 1 1 1 1 1 1 1 1 1 1 1 1 1 1 1 0 0 0 0 0 0 0 0 0 0 0 0 0 0 0 0 0 0 0 0 0 0 0 0 0 0 0 0 0 0 0 0 0 0 0 0 0 0 0 0 0 0 0 0 0 0 0 0 0 0 0 0 0 0 0 0 0 0 0 0 0 0 0 0 0 0 0 0 0 0 0 0 0 0 0 0 0 0 0 0 0 0 0 0 0 0 0 0 0 0 0 0 0 0 0 0 0 0 0 0 0 0 1 1 1 1 1 1 1 1 1 1 1 1 1 1 1 1 0 0 0 0 0 0 0 0 0 0 0 0 0 0 0 0 0 0 0 0 0 0 0 0 0 0 0 1 1 1 1 0 0 0 0 0 0 0 0 0 0 0 0 0 0 0 0 0 0 0 0 0 0 0 0 0 0 0 0 0 0 0 0 0 0 0 0 0 0 0 0 0 0 0 0 0 0 0 0 0 0 0 0 0 0 0 0 0 0 0 0 0 0 0 0 0 0 0 0 1 1 1 1 1 1 1 1 1 1 1 1 1 1 1 1 1 1 1 1 1 1 1 1 0 0 0 0 0 0 0 0 0 0 0 0 0 0 0 0 0 0 0 0 0 0 0 0 0 0 0 0 0 0 0 0 0 0 0 0 0 0 0 0 0 0 0 0 0 0 0 0 0 0 0 0 0 0 0 0 0 0 0 0 0 0 0 0 0 0 0 0 1 1 1 1 1 1 1 1 1 1 1 1 1 1 1 1 0 0 0 0 0 0 0 0 0 0 0 0 0 0 0 0 0 0 0 0 0 0 0 0 0 0 0 0 0 0 1 1 1 1 0 0 0 0 0 0 0 0 0 0 0 0 0 0 0 0 0 0 0 0 0 0 0 0 0 0 0 0 0 0 0 0 0 0 0 0 0 0 0 0 0 0 0 0 0 0 0 0 0 0 0 0 0 0 0 0 0 0 0 0 0 0 0 0 0 0 0 0 0 0 0 0 0 0 0 0 0 0 0 0 0 0 0 0 0 0 0 0 0 0 0 0 0 0 0 0 0 0 0 0 0 0 0 0 0 0 0 0 0 0 0 0 0 0 0 0 0 0 0 0 0 0 0 0 0 0 0 0 0 0 0 0 0 0 0 0 0 0 0 0 0 0 0 0 0 0 0 0 0 0 0 0 0 0 0 0 0 0 0 0 0 0 0 0 0 0 0 0 0 0 0 0 0 0 0 0 0 1 1 1 1 1 1 1 1 1 1 1 1 1 1 1 1 1 1 1 1 1 1 1 1 1 1 1 1 1 1 1 1 1 1 1 1 1 1 1 1 0 0 0 0 1 1 1 1 1 1 1 1 1 1 1 1 1 1 1 1 0 0 1 1 1 1 1 1 1 1 0 0 1 1 1 1 1 1 1 1 1 1 1 1 1 1 1 1 0 0 0 0 0 0 0 0 0 0 0 0 0 0 0 0 0 0 0 0 0 0 0 0 1 1 1 1 1 1 1 1 1 1 1 1 1 1 1 1 0 0 0 0 0 0 0 0 0 0 0 0 0 0 0 0 0 0 0 0 0 0 0 0 0 0 0 0 0 0 0 0 0 0 0 0 0 0 0 0 0 0 0 0 0 0 0 0 0 0 1 1 1 1 1 1 1 1 1 1 1 1 1 1 1 1 1 1 1 1 1 1 1 1 1 1 1 1 1 1 1 1 1 1 1 1 41 41 41 41 41 41 41 41 41 41 41 41 1 1 1 1 51 51 51 51 51 51 51 51 51 51 51 51 1 1 1 1 1 1 1 1 1 1 1 1 46 46 46 46 46 46 46 46 46 46 46 46 1 1 1 1 1 1 1 1 1 1 1 1 1 1 1 1 1 1 1 1 17 17 17 17 17 17 17 17 17 17 17 17 1 1 1 1 22 22 22 22 22 22 22 22 22 22 22 22 1 1 1 1 1 1 1 1 1 1 1 1 1 1 1 1 1 1 1 1 1 1 1 1 1 1 1 1 12 12 12 12 12 12 12 12 12 12 12 12 1 1 1 1 2 2 2 2 2 2 2 2 2 2 2 2 1 1 1 1 1 1 1 1 1 1 1 1 7 7 7 7 7 7 7 7 7 7 7 7 1 1 1 1 1 1 1 1 1 1 1 1 56 56 56 56 56 56 56 56 56 56 56 56 1 1 1 1 61 61 61 61 61 61 61 61 61 61 61 61 1 1 1 1 66 66 66 66 66 66 66 66 66 66 66 66 1 1 1 1 1 1 1 1 1 1 1 1 77 77 77 77 77 77 77 77 77 77 77 77 1 1 1 1 82 82 82 82 82 82 82 82 82 82 82 82 1 1 1 1 87 87 87 87 87 87 87 87 87 87 87 87 1 1 1 1 92 92 92 92 92 92 92 92 92 92 92 92 1 1 1 1 97 97 97 97 97 97 97 97 97 97 97 97 1 1 1 1 1 1 1 1 1 1 1 1 1 1 1 1 1 1 1 1 1 1 1 1 1 1 1 1 1 1 1 1 1 1 1 1 1 1 1 1 1 1 1 1 1 1 1 1 1 1 1 1 1 1 1 1 1 1 1 1 1 1 1 1 1 1 1 1 1 1 1 1 1 1 1 1 1 1 1 1 1 1 1 1 1 1 1 1 1 1 1 1 1 1 1 1 1 1 1 1 1 1 1 1 1 1 1 1 1 1 1 1 </DataArray>
</CellData>
</Piece>
</UnstructuredGrid>
</VTKFile>