<?xml version="1.0"?>
<VTKFile type="UnstructuredGrid"  version="0.1"  >
<UnstructuredGrid>
<Piece  NumberOfPoints="392" NumberOfCells="684">
<Points>
<DataArray  type="Float64"  NumberOfComponents="3"  format="ascii">1.925 0.0625 0  1.925 0.03750000000000001 0  1.975 0.03750000000000001 0  1.975 0.0625 0  1.825 0.0625 0  1.825 0.03750000000000001 0  1.875 0.03750000000000001 0  1.875 0.0625 0  1.725 0.0625 0  1.725 0.03750000000000001 0  1.775 0.03750000000000001 0  1.775 0.0625 0  1.625 0.0625 0  1.625 0.03750000000000001 0  1.675 0.03750000000000001 0  1.675 0.0625 0  1.125 0.4625 0  1.125 0.4375 0  1.175 0.4375 0  1.175 0.4625 0  1.025 0.4625 0  1.025 0.4375 0  1.075 0.4375 0  1.075 0.4625 0  0.9249999999999999 0.4625 0  0.9249999999999999 0.4375 0  0.975 0.4375 0  0.975 0.4625 0  0.825 0.4625 0  0.825 0.4375 0  0.875 0.4375 0  0.875 0.4625 0  0.325 0.0625 0  0.325 0.03750000000000001 0  0.375 0.03750000000000001 0  0.375 0.0625 0  0.225 0.0625 0  0.225 0.03750000000000001 0  0.275 0.03750000000000001 0  0.275 0.0625 0  0.125 0.0625 0  0.125 0.03750000000000001 0  0.175 0.03750000000000001 0  0.175 0.0625 0  0.025 0.0625 0  0.025 0.03750000000000001 0  0.07500000000000001 0.03750000000000001 0  0.07500000000000001 0.0625 0  0.04999999999999999 -0.05 0  0.04999999999999999 -0.1 0  0.35 -0.1 0  0.35 -0.05 0  0.3646446609406727 -0.01464466094067262 0  0.4 0 0  0.4 0.1 0  0 0.1 0  0 0 0  0.03535533905932739 -0.01464466094067263 0  1.2 0.4 0  1.2 0.5 0  1.164644660940673 0.5146446609406726 0  1.15 0.5499999999999999 0  1.15 0.6 0  0.85 0.6 0  0.85 0.55 0  0.8353553390593274 0.5146446609406726 0  0.8 0.5 0  0.7999999999999999 0.4 0  1.65 -0.05 0  1.65 -0.1 0  1.95 -0.1 0  1.95 -0.05 0  1.964644660940673 -0.01464466094067262 0  2 0 0  2 0.1 0  1.6 0.1 0  1.6 0 0  1.635355339059327 -0.01464466094067263 0  0 0.5 0  2 0.5 0  1.2 0.45 0  1 0 0  0.4 0.05 0  0 0.05 0  1.8 -0.1 0  0.2 -0.1 0  1 0.6 0  1.8 0.1 0  0.8 0.45 0  0.4 0.5 0  1 0.4 0  2 0.05 0  1.6 0.05 0  0.2 0.1 0  1.9 0.1 0  1.7 0.1 0  0.8999999999999999 0.4 0  1.1 0.4 0  0.1 0.1 0  0.3 0.1 0  1.95 0.1 0  1.85 0.1 0  1.65 0.1 0  1.75 0.1 0  0.8499999999999999 0.4 0  0.95 0.4 0  1.15 0.4 0  1.05 0.4 0  0.05 0.1 0  0.15 0.1 0  0.35 0.1 0  0.25 0.1 0  1.6 0.5 0  1.3 0 0  0.7 0 0  1.4375 0.3 0  0.5625 0.3 0  0.2 0.5 0  1.8 0.5 0  2 0.3 0  1.175 0.1812499999999999 0  0.85 0.1718750000000001 0  0.325 0.30625 0  0 0.3 0  1.675 0.30625 0  0.6000000000000001 0.5 0  1.4 0.5 0  0.55 0 0  1.341622340425532 0.1624335106382981 0  0.6773726522481502 0.1711395489470689 0  1.012901283253751 0.162651347203274 0  0.1632109004739336 0.2661581753554502 0  1.836789099526067 0.2661581753554501 0  1.45 0 0  0.85 0 0  1.15 0 0  0.5329311837679237 0.158009038188562 0  0.1048445205763076 0.3951554794236924 0  1.895155479423692 0.3951554794236923 0  1.296148418660236 0.2963212443180608 0  1.470822962357565 0.1312655564636528 0  1.563133067958938 0.2301675207422046 0  0.7632564689914135 0.2724046712857893 0  1.5 0.5 0  1.554464285714286 0.3709821428571428 0  0.6669642857142857 0.3839285714285714 0  0.5 0.5 0  0.4455357142857143 0.3709821428571428 0  0.4243119651802664 0.2256020782473696 0  1.082498036353099 0.2717671838924914 0  0.9372456691183737 0.2696106313453704 0  0.2267876088535605 0.3800847476474584 0  1.77321239114644 0.3800847476474585 0  1.3 0.5 0  1.36443880878442 0.3898166516470788 0  0.7749999999999999 0.08593750000000001 0  0.925 0.08593750000000004 0  1.250122512805358 0.09933018124507483 0  0.275 0.2076704545454545 0  1.73756600464573 0.2122399107802653 0  1.188322811889439 0.292749054583077 0  0.6122357112402278 0.0866494119172642 0  1.102329427930278 0.09892438925099596 0  1.7 0.5 0  0.3 0.5 0  0.5459552020690525 0.4045953756465789 0  2 0.2 0  0 0.2 0  0.6623894180364593 0.2826461878847109 0  0.1 0.5 0  0 0.4 0  2 0.4 0  1.9 0.5 0  0.7000000000000001 0.5 0  0.3218789381964591 0.4043351855737367 0  1.651846443535515 0.4077254588986433 0  1.389349570269088 0.07690549543040782 0  1.460753985780937 0.393539984346597 0  0.5997360736198706 0.2181715474379875 0  0.125 0.1855919731052476 0  1.875 0.1855919731052475 0  1.650439576694959 0.2220797951794818 0  0.8508156068645467 0.3061622962159847 0  0.7636863261240752 0.1715072744735344 0  1.475131383499517 0.2197740741701695 0  0.4911912217663637 0.07357366529909103 0  1.930906424286099 0.25 0  0.07640224989301839 0.2579853162158819 0  1.259621577815083 0.1834455767022115 0  1.368178610886578 0.2461194380394792 0  0.2443588009795495 0.2851816999747424 0  1.758630395614505 0.2972444940617194 0  1.283553234500905 0.4164467654990952 0  1.092979533702891 0.180414477406161 0  1.006450641626876 0.08132567360163702 0  0.9314506416268757 0.167263173601637 0  0.6935959492753776 0.08128501245057949 0  1.075 0.6 0  1.875 -0.1 0  1.725 -0.1 0  0.275 -0.1 0  0.125 -0.1 0  0.925 0.6 0  1.525 0 0  0.4776569423119861 0.2920535891286455 0  0.4020861482848835 0.3072992534399704 0  1.025 0.3254298552747583 0  0.2027347199230812 0.1780516756640375 0  0.3537475299621801 0.1825670159535071 0  1.375 0 0  0.85 0.09617897727272727 0  1.225 0 0  0.925 0 0  0.7749999999999999 0 0  0.475 0 0  0.625 0 0  1.075 0 0  1.928301565342725 0.3263388024218867 0  0.7294912511984659 0.4250000000000002 0  0.7363172176531352 0.3464770727519887 0  1.176296005364802 0.07361991101586525 0  0.25 -0.03125 0  0.15 -0.03125 0  1.05 0.53125 0  1.85 -0.03125 0  1.75 -0.03124999999999999 0  0.95 0.53125 0  1.413833501026992 0.1783988133279079 0  1.010311808337519 0.2410561529140032 0  0.4612760904572917 0.1408965722872714 0  0.4972279162726879 0.2217051796165551 0  1.125772017208398 0.3308706697164291 0  1.367901752364094 0.3180095046854547 0  1.518670939081018 0.2981045015502355 0  1.59690777167693 0.30078962236185 0  1.526128395599057 0.07727870330070698 0  1.828872040436541 0.4306006981581906 0  0.15 0.4497761506325246 0  1.839758054208022 0.3425177730532244 0  0.1141942995330689 0.3216829623232483 0  1.945369442271463 0.4453694422714633 0  0.05 0.5 0  1.240686027304319 0.3413090544113066 0  1.316928753233505 0.07068836381982413 0  0.2619027753960266 0.4409526983943627 0  1.720845561542362 0.4304199639905683 0  1.55 0.4451024159663866 0  0.4809317384335179 0.4320447270774966 0  1.807015290356054 0.2026926420903883 0  0.05026445138346253 0.3508787038538807 0  0.393856566906688 0.4252870866393352 0  0.913220178645909 0.3332620492501031 0  1.525273295158551 0.1729741426009245 0  1.601658996405642 0.1707744844670951 0  0.8733054036978282 0.2388795773210715 0  0.6125435906042009 0.4298843517222039 0  0.6200850989387395 0.3353015637829367 0  1.460711153920992 0.06558524044355403 0  0.8066282344957068 0.2221398356428947 0  0.7203145606197819 0.2217721101164291 0  1.703740671329455 0.3661869225849074 0  0.5990587027436781 0.1517521314804627 0  1.675 0.1609506706744878 0  0.5153836090368266 0.3461533817824105 0  1.243679482455746 0.2509523986931738 0  0.1923088017181099 0.3246228684067324 0  1.143479272814173 0.2415618384172959 0  0.3613256977497352 0.249510776893205 0  1.35 0.5 0  0.36286559874544 0.3565471286944428 0  0.05955885377676867 0.1672794268883843 0  1.938138695104181 0.1872548469777267 0  1.312129673616584 0.2178490428945431 0  0.2732136354092187 0.3396023070187588 0  0.1661642491970064 0.3904374081211693 0  1.410896435200069 0.4356529402203816 0  0.5498786686905027 0.09709658512388622 0  0.7931800870948912 0.3252224786258671 0  1.299731160983831 0.3574199598841847 0  1.632705368110799 0.3499788667466203 0  0.35 0.5 0  1.413967210687929 0.3562181143537333 0  0.075 0.4463106472259004 0  1.775 0.1532937771065077 0  0.6717759379371472 0.4456036019631708 0  0.4103666348092597 0.1690985306522001 0  0.2228761112987135 0.2318772604727423 0  0.8070036251099498 0.1340269886363636 0  0.720694593897288 0.1325695228173195 0  0.8816324869791667 0.04808948863636364 0  0.8124999999999999 0.04296875 0  0.9625 0.04296875000000002 0  0.7374999999999999 0.04296875000000001 0  0.9699215651412139 0.1251417750323321 0  1.491992169547333 0.4424881086376402 0  1.712698203298838 0.2635144279265098 0  0.6570382073221132 0.2251671676055735 0  0.2058570911263748 0.44416851527159 0  0.9682933569671909 0.3176896785403109 0  1.25 0.5 0  1.479026197932725 0.3393370671651255 0  1.198847580415758 0.127714308405318 0  1.2625 0.04335760283262356 0  1.29147781925916 0.1372540266083001 0  1.356072654547209 0.4447580517396325 0  0.2940110804164894 0.2599978349000986 0  0.3023094202100461 0.157273826160548 0  1.42164755951862 0.232916561801728 0  1.060942787665469 0.1354572591164508 0  1.1343661739677 0.1438816075407062 0  1.126829345559166 0.04978247325994596 0  0.55 0.5 0  1.878247609755212 0.3027837348463762 0  1.45 0.5 0  1.60711932076804 0.4432973516127806 0  1.65 0.5 0  0.8887128874759703 0.1340269886363636 0  1.774828163938701 0.4488223788724915 0  0.9741951226330795 0.2006181632730862 0  1.186518668510543 0.3472066475339435 0  2 0.15 0  0.655342391488794 0.1207701386972099 0  0.5875 0.03874074761510298 0  1.0375 0.03794421594571627 0  0.6505462210657735 0.04802806016679532 0  1.777778634182298 0.2473873017454838 0  0.45 0.5 0  0.5690954247705213 0.3538594787582222 0  1.830596789080292 0.1521143869125729 0  1.880979602406887 0.4483446850634988 0  1.947802068033803 0.3927228536613528 0  2 0.35 0  1.562441350057411 0.136287083472548 0  1.416812175611726 0.1239803747715759 0  0.75 0.5 0  0.5493328796498124 0.2446219238602108 0  1.075 0.3513111004457051 0  1.060628046991921 0.2229802372164043 0  0.9221538744171671 0.2191273562955505 0  1.8 -0.01051136363636362 0  1.6953125 -0.01562499999999998 0  1.897713414634147 -0.05282012195121953 0  1.097713414634147 0.5528201219512194 0  1 0.5105113636363637 0  0.2977134146341464 -0.0528201219512195 0  0.2 -0.01051136363636362 0  0.1022865853658537 -0.05282012195121952 0  0.8953125 0.515625 0  0.2494651744946157 0.1530130413581762 0  0.7122738490955939 0.2721174869100541 0  0.6711366323973266 0.3329955950433481 0  0.6113378845778723 0.2849521566242995 0  1.193921395561331 0.2426076805114186 0  1.7241094360339 0.1454913456734616 0  1.55 0.5 0  1.95 0.5 0  0 0.35 0  0.25 0.5 0  0.15 0.5 0  0 0.15 0  0.6500000000000001 0.5 0  0 0.45 0  0 0.25 0  2 0.25 0  2 0.45 0  1.85 0.5 0  1.75 0.5 0  0.3480280802759806 0.4486140962992905 0  1.675 0.4545976311125231 0  0.05525386147718072 0.4005071157594937 0  0.2752135538058153 0.3887581929828137 0  1.41985035655882 0.03859120963227741 0  1.367856357556081 0.1209922594524076 0  1.055572740356352 0.0836815853470315 0  0.5386212939270565 0.04853414960662568 0  0.5281419764207744 0.4531386438455001 0  1.60278491507081 0.3919421133187143 0  0.1757082780643073 0.2188461187535989 0  0.06832608842390792 0.305836837413568 0  1.510909864931695 0.3959730281080415 0  0.3222716141555831 0.2201133380635872 0  0.04123134386355729 0.225 0  1.883357320719186 0.2552223905911107 0  1.925 0.1410351623903204 0  1.638205503590089 0.2713180370165214 0  0.4478688082017341 0.09463111537512797 0  0.8136747015337238 0.2720643913784041 0  0.6081892670138701 0.3819451089952778 0  0.08266095334507884 -0.009467383746031344 0  0.3 -0.004229089482350519 0  1.9 -0.004229089482350519 0  1.117339046654921 0.5094673837460313 0  </DataArray>
</Points>
<Cells>
<DataArray  type="UInt32"  Name="connectivity"  format="ascii">84 199 225  0 1 2  16 18 19  0 2 3  7 94 101  2 73 91  19 59 80  4 5 6  199 225 340  0 1 7  4 6 7  1 6 7  13 14 77  8 9 10  4 5 11  8 10 11  5 10 11  13 76 92  12 13 14  221 344 389  8 9 15  12 14 15  9 14 15  16 19 60  16 17 23  15 95 102  0 7 94  16 17 18  18 58 80  197 223 342  19 59 60  20 21 27  22 97 107  20 21 22  18 58 106  20 22 23  17 22 23  60 61 391  24 25 31  17 97 106  24 25 26  24 26 27  21 26 27  86 197 223  121 210 316  32 34 35  28 29 30  32 33 34  28 30 31  25 30 31  4 11 87  34 52 53  200 221 344  29 67 88  21 26 90  35 54 82  145 255 284  12 75 102  36 39 111  36 37 38  51 344 389  32 33 39  36 38 39  33 38 39  40 47 98  8 15 95  37 38 221  40 41 42  222 346 388  36 37 43  40 42 43  37 42 43  40 98 109  152 245 317  201 222 346  44 45 46  45 46 57  40 41 47  44 46 47  41 46 47  45 56 83  9 225 340  71 72 390  38 221 389  33 34 52  25 96 105  28 65 66  32 39 99  44 55 83  44 45 83  48 57 388  45 56 57  149 231 266  17 22 97  34 35 82  223 342 391  63 64 202  202 226 347  64 202 347  24 31 347  28 31 65  158 305 380  204 230 335  25 30 96  9 14 340  84 198 224  6 224 390  198 224 341  2 72 73  71 341 390  1 2 72  3 74 91  2 3 91  8 95 103  18 19 80  148 204 205  13 76 77  36 93 111  44 55 108  36 43 93  39 99 111  98 109 179  34 53 82  85 201 222  20 23 223  4 87 101  4 7 101  28 29 88  28 66 88  26 90 105  25 26 105  12 13 92  12 75 92  47 98 108  0 94 100  87 283 328  12 15 102  30 96 104  149 206 228  17 18 106  98 108 270  44 47 108  32 99 110  93 109 207  0 3 100  3 74 100  87 103 283  180 248 328  175 279 376  92 203 235  8 11 103  11 87 103  29 30 104  29 67 104  97 106 231  105 251 298  160 264 352  21 22 107  21 90 107  40 43 109  43 93 109  32 35 110  35 54 110  131 187 239  98 179 270  234 279 384  58 106 319  142 258 259  139 189 272  128 189 227  54 110 285  114 196 324  167 270 381  122 273 305  138 236 238  152 191 238  180 186 382  121 195 338  150 251 298  90 206 298  150 182 251  168 296 351  164 244 367  131 179 187  169 241 282  159 283 353  75 102 253  256 327 387  139 242 278  116 204 335  54 229 385  76 92 203  115 233 300  127 322 374  136 185 276  156 195 293  120 266 352  109 179 207  179 207 377  180 271 383  180 186 271  140 235 257  156 210 316  81 212 291  136 230 335  148 204 230  153 268 304  141 181 253  141 184 252  181 253 262  144 234 279  96 104 251  104 182 251  139 189 232  175 245 260  144 246 379  115 189 232  145 218 219  104 182 277  148 208 267  147 204 263  146 311 375  99 110 306  110 208 306  160 231 266  106 231 319  121 254 258  150 182 254  174 273 370  175 314 376  154 192 278  139 264 272  143 246 294  177 294 379  134 213 290  156 210 289  162 308 309  158 286 305  208 267 380  159 248 283  159 181 262  160 266 352  160 231 319  155 196 288  196 288 321  162 220 309  130 228 318  314 315 368  152 245 260  164 280 367  145 219 350  165 255 375  166 186 271  100 320 383  179 270 381  116 335 351  178 296 351  239 249 378  282 361 369  152 236 238  119 186 217  173 218 334  190 273 305  147 204 205  246 314 376  144 233 234  128 227 372  113 209 243  144 233 300  246 294 379  129 288 321  129 178 261  158 207 286  207 286 377  248 283 328  87 101 328  124 191 295  141 233 234  67 219 277  67 218 219  183 258 259  129 183 259  188 264 272  140 184 227  185 276 374  132 191 238  132 238 312  137 239 249  123 249 378  157 220 301  128 272 303  189 227 307  184 227 307  151 265 273  131 239 265  132 191 325  132 180 248  59 80 299  58 80 192  193 308 309  120 193 309  162 220 310  130 193 308  150 228 318  121 183 258  114 215 324  155 290 292  23 223 391  61 342 391  5 10 339  84 225 339  68 199 340  68 69 199  51 52 389  85 200 221  41 222 388  48 346 388  86 223 343  86 226 343  133 203 257  203 235 257  165 247 263  147 247 263  147 205 269  174 250 269  97 231 336  90 107 206  158 207 348  158 306 348  54 229 285  110 208 285  176 257 371  176 209 243  155 287 288  155 210 287  157 220 302  135 220 310  156 289 291  134 289 290  213 290 292  114 213 292  82 185 214  53 82 214  161 322 324  127 215 322  216 310 323  81 216 323  171 330 331  138 217 330  67 104 277  67 88 218  168 349 350  142 259 349  135 211 220  211 220 302  37 42 345  85 222 345  42 222 345  41 42 222  86 202 226  27 226 343  224 341 390  5 6 224  10 225 339  9 10 225  24 226 347  24 27 226  227 333 372  140 227 333  130 228 337  149 228 337  185 229 385  136 185 229  148 229 230  136 229 230  149 206 336  149 231 336  115 232 281  154 232 281  115 184 233  141 184 233  141 234 384  124 279 384  75 92 235  140 184 252  118 236 365  117 237 297  138 217 312  138 238 312  137 237 274  137 239 274  138 236 329  137 237 282  169 237 282  192 242 278  58 192 242  157 188 303  113 211 302  117 297 357  151 244 297  163 245 366  112 246 314  147 250 269  132 248 325  159 248 325  147 247 250  89 250 326  90 105 298  96 105 251  140 252 332  75 253 332  141 252 253  252 253 332  121 254 338  150 254 338  125 255 360  116 256 327  116 204 263  176 333 372  133 257 371  254 258 386  142 258 386  168 296 349  129 178 296  124 191 260  152 191 260  136 178 261  215 322 324  102 253 262  95 102 262  116 263 327  165 263 327  139 242 264  160 242 264  131 190 265  190 265 273  130 193 337  120 193 266  148 205 267  122 205 267  154 275 304  122 269 273  122 205 269  55 108 359  166 271 320  188 272 303  128 189 272  174 269 273  151 273 370  239 265 274  151 265 274  126 268 304  126 275 304  161 261 276  136 261 276  142 219 277  182 254 386  139 232 278  154 232 278  124 260 279  175 260 279  89 250 367  89 280 367  177 275 281  154 275 281  137 249 369  137 282 369  95 103 353  103 283 353  145 218 284  173 218 284  148 229 285  148 208 285  190 286 305  131 190 286  121 210 287  121 183 287  183 287 288  129 183 288  134 212 289  212 289 291  210 289 290  155 210 290  194 323 373  156 194 291  155 196 292  114 196 292  156 194 293  130 194 293  126 275 313  177 275 294  141 181 384  159 181 295  129 259 296  259 296 349  237 274 297  151 274 297  150 228 298  206 228 298  80 192 299  153 192 299  177 281 300  115 281 300  157 188 301  120 188 301  113 243 302  157 243 302  157 243 303  128 303 372  153 192 304  154 192 304  267 305 380  122 267 305  99 111 348  99 306 348  115 184 307  115 189 307  130 194 308  162 310 373  220 301 309  120 301 309  310 323 373  135 216 310  125 255 375  125 311 375  186 312 382  186 217 312  275 294 313  143 294 313  112 314 315  163 245 368  163 315 368  156 195 316  121 195 316  152 236 317  118 236 317  195 293 318  130 293 318  160 242 319  58 242 319  271 320 383  74 100 320  129 261 321  161 261 321  161 276 322  276 322 374  194 291 323  81 291 323  196 321 324  161 321 324  191 295 325  159 295 325  247 250 326  146 247 326  165 255 387  165 327 387  94 101 328  94 180 328  138 240 329  172 240 329  171 240 330  138 240 330  217 330 331  119 217 331  140 235 332  75 235 332  176 257 333  140 257 333  88 218 334  66 88 334  136 178 335  178 335 351  97 107 336  107 206 336  193 266 337  149 266 337  195 318 338  150 318 338  84 224 339  5 224 339  14 77 340  68 77 340  70 198 341  70 71 341  61 62 342  62 197 342  20 27 343  20 223 343  50 200 344  50 51 344  85 221 345  37 221 345  48 49 346  49 201 346  64 65 347  31 65 347  93 207 348  93 111 348  142 219 349  219 349 350  145 256 350  168 256 350  168 256 351  116 256 351  120 188 352  188 264 352  159 262 353  95 262 353  143 246 354  112 246 354  172 240 355  79 355 364  123 249 356  170 249 356  244 297 357  164 244 357  169 237 358  117 237 358  108 270 359  167 270 359  255 284 360  173 284 360  241 282 361  78 241 361  179 187 381  123 187 362  119 186 363  166 186 363  240 355 364  171 240 364  236 329 365  172 329 365  245 317 366  118 317 366  174 244 367  174 250 367  175 314 368  175 245 368  170 361 369  170 249 369  174 244 370  151 244 370  176 209 371  133 209 371  243 303 372  176 243 372  162 308 373  194 308 373  185 214 374  127 214 374  146 247 375  165 247 375  144 246 376  144 279 376  131 286 377  131 179 377  123 187 378  187 239 378  177 300 379  144 300 379  158 306 380  208 306 380  187 362 381  167 362 381  132 312 382  132 180 382  94 180 383  94 100 383  181 295 384  124 295 384  54 82 385  82 185 385  182 277 386  142 277 386  145 256 387  145 255 387  41 46 388  46 57 388  33 52 389  33 38 389  1 72 390  1 6 390  16 23 391  16 60 391  </DataArray>
<DataArray  type="UInt32"  Name="offsets"  format="ascii">3 6 9 12 15 18 21 24 27 30 33 36 39 42 45 48 51 54 57 60 63 66 69 72 75 78 81 84 87 90 93 96 99 102 105 108 111 114 117 120 123 126 129 132 135 138 141 144 147 150 153 156 159 162 165 168 171 174 177 180 183 186 189 192 195 198 201 204 207 210 213 216 219 222 225 228 231 234 237 240 243 246 249 252 255 258 261 264 267 270 273 276 279 282 285 288 291 294 297 300 303 306 309 312 315 318 321 324 327 330 333 336 339 342 345 348 351 354 357 360 363 366 369 372 375 378 381 384 387 390 393 396 399 402 405 408 411 414 417 420 423 426 429 432 435 438 441 444 447 450 453 456 459 462 465 468 471 474 477 480 483 486 489 492 495 498 501 504 507 510 513 516 519 522 525 528 531 534 537 540 543 546 549 552 555 558 561 564 567 570 573 576 579 582 585 588 591 594 597 600 603 606 609 612 615 618 621 624 627 630 633 636 639 642 645 648 651 654 657 660 663 666 669 672 675 678 681 684 687 690 693 696 699 702 705 708 711 714 717 720 723 726 729 732 735 738 741 744 747 750 753 756 759 762 765 768 771 774 777 780 783 786 789 792 795 798 801 804 807 810 813 816 819 822 825 828 831 834 837 840 843 846 849 852 855 858 861 864 867 870 873 876 879 882 885 888 891 894 897 900 903 906 909 912 915 918 921 924 927 930 933 936 939 942 945 948 951 954 957 960 963 966 969 972 975 978 981 984 987 990 993 996 999 1002 1005 1008 1011 1014 1017 1020 1023 1026 1029 1032 1035 1038 1041 1044 1047 1050 1053 1056 1059 1062 1065 1068 1071 1074 1077 1080 1083 1086 1089 1092 1095 1098 1101 1104 1107 1110 1113 1116 1119 1122 1125 1128 1131 1134 1137 1140 1143 1146 1149 1152 1155 1158 1161 1164 1167 1170 1173 1176 1179 1182 1185 1188 1191 1194 1197 1200 1203 1206 1209 1212 1215 1218 1221 1224 1227 1230 1233 1236 1239 1242 1245 1248 1251 1254 1257 1260 1263 1266 1269 1272 1275 1278 1281 1284 1287 1290 1293 1296 1299 1302 1305 1308 1311 1314 1317 1320 1323 1326 1329 1332 1335 1338 1341 1344 1347 1350 1353 1356 1359 1362 1365 1368 1371 1374 1377 1380 1383 1386 1389 1392 1395 1398 1401 1404 1407 1410 1413 1416 1419 1422 1425 1428 1431 1434 1437 1440 1443 1446 1449 1452 1455 1458 1461 1464 1467 1470 1473 1476 1479 1482 1485 1488 1491 1494 1497 1500 1503 1506 1509 1512 1515 1518 1521 1524 1527 1530 1533 1536 1539 1542 1545 1548 1551 1554 1557 1560 1563 1566 1569 1572 1575 1578 1581 1584 1587 1590 1593 1596 1599 1602 1605 1608 1611 1614 1617 1620 1623 1626 1629 1632 1635 1638 1641 1644 1647 1650 1653 1656 1659 1662 1665 1668 1671 1674 1677 1680 1683 1686 1689 1692 1695 1698 1701 1704 1707 1710 1713 1716 1719 1722 1725 1728 1731 1734 1737 1740 1743 1746 1749 1752 1755 1758 1761 1764 1767 1770 1773 1776 1779 1782 1785 1788 1791 1794 1797 1800 1803 1806 1809 1812 1815 1818 1821 1824 1827 1830 1833 1836 1839 1842 1845 1848 1851 1854 1857 1860 1863 1866 1869 1872 1875 1878 1881 1884 1887 1890 1893 1896 1899 1902 1905 1908 1911 1914 1917 1920 1923 1926 1929 1932 1935 1938 1941 1944 1947 1950 1953 1956 1959 1962 1965 1968 1971 1974 1977 1980 1983 1986 1989 1992 1995 1998 2001 2004 2007 2010 2013 2016 2019 2022 2025 2028 2031 2034 2037 2040 2043 2046 2049 2052 </DataArray>
<DataArray  type="UInt8"  Name="types"  format="ascii">5 5 5 5 5 5 5 5 5 5 5 5 5 5 5 5 5 5 5 5 5 5 5 5 5 5 5 5 5 5 5 5 5 5 5 5 5 5 5 5 5 5 5 5 5 5 5 5 5 5 5 5 5 5 5 5 5 5 5 5 5 5 5 5 5 5 5 5 5 5 5 5 5 5 5 5 5 5 5 5 5 5 5 5 5 5 5 5 5 5 5 5 5 5 5 5 5 5 5 5 5 5 5 5 5 5 5 5 5 5 5 5 5 5 5 5 5 5 5 5 5 5 5 5 5 5 5 5 5 5 5 5 5 5 5 5 5 5 5 5 5 5 5 5 5 5 5 5 5 5 5 5 5 5 5 5 5 5 5 5 5 5 5 5 5 5 5 5 5 5 5 5 5 5 5 5 5 5 5 5 5 5 5 5 5 5 5 5 5 5 5 5 5 5 5 5 5 5 5 5 5 5 5 5 5 5 5 5 5 5 5 5 5 5 5 5 5 5 5 5 5 5 5 5 5 5 5 5 5 5 5 5 5 5 5 5 5 5 5 5 5 5 5 5 5 5 5 5 5 5 5 5 5 5 5 5 5 5 5 5 5 5 5 5 5 5 5 5 5 5 5 5 5 5 5 5 5 5 5 5 5 5 5 5 5 5 5 5 5 5 5 5 5 5 5 5 5 5 5 5 5 5 5 5 5 5 5 5 5 5 5 5 5 5 5 5 5 5 5 5 5 5 5 5 5 5 5 5 5 5 5 5 5 5 5 5 5 5 5 5 5 5 5 5 5 5 5 5 5 5 5 5 5 5 5 5 5 5 5 5 5 5 5 5 5 5 5 5 5 5 5 5 5 5 5 5 5 5 5 5 5 5 5 5 5 5 5 5 5 5 5 5 5 5 5 5 5 5 5 5 5 5 5 5 5 5 5 5 5 5 5 5 5 5 5 5 5 5 5 5 5 5 5 5 5 5 5 5 5 5 5 5 5 5 5 5 5 5 5 5 5 5 5 5 5 5 5 5 5 5 5 5 5 5 5 5 5 5 5 5 5 5 5 5 5 5 5 5 5 5 5 5 5 5 5 5 5 5 5 5 5 5 5 5 5 5 5 5 5 5 5 5 5 5 5 5 5 5 5 5 5 5 5 5 5 5 5 5 5 5 5 5 5 5 5 5 5 5 5 5 5 5 5 5 5 5 5 5 5 5 5 5 5 5 5 5 5 5 5 5 5 5 5 5 5 5 5 5 5 5 5 5 5 5 5 5 5 5 5 5 5 5 5 5 5 5 5 5 5 5 5 5 5 5 5 5 5 5 5 5 5 5 5 5 5 5 5 5 5 5 5 5 5 5 5 5 5 5 5 5 5 5 5 5 5 5 5 5 5 5 5 5 5 5 5 5 5 5 5 5 5 5 5 5 5 5 5 5 5 5 5 5 5 5 5 5 5 5 5 5 5 5 5 5 5 5 5 5 5 5 5 5 5 5 5 5 5 5 5 5 5 5 5 5 5 5 5 5 5 5 5 5 5 5 5 5 5 5 5 5 5 5 5 5 </DataArray>
</Cells>
<CellData  Scalars="f">
<DataArray  type="Float64"  Name="f"  format="ascii">1 97 61 97 1 1 1 92 1 1 92 1 1 87 1 87 1 1 82 1 1 82 1 1 1 1 1 61 1 1 1 1 1 56 1 56 1 1 1 1 51 51 1 1 0 17 46 17 46 1 1 1 1 1 1 1 0 1 1 12 1 1 12 1 1 1 1 7 1 1 7 1 1 0 1 2 1 1 2 1 1 1 1 1 1 1 1 1 1 1 1 1 0 1 1 1 1 1 1 1 1 0 0 1 1 1 1 1 1 1 1 1 1 1 1 0 1 1 1 1 1 0 1 1 1 1 1 1 1 1 1 1 1 1 1 0 1 1 0 1 0 1 1 0 1 1 0 0 0 0 1 1 1 1 0 0 0 1 1 1 1 1 1 0 0 0 0 0 0 0 0 0 0 0 0 0 0 0 0 0 0 0 0 0 0 0 0 0 0 0 0 0 0 0 0 0 0 0 0 0 0 0 0 0 0 0 0 0 0 0 0 0 0 0 0 0 0 0 0 0 0 0 0 0 0 0 0 0 0 0 0 0 0 0 0 0 0 0 0 0 0 0 0 0 0 0 0 0 0 0 0 0 0 0 0 0 0 0 0 0 0 0 0 0 0 0 0 0 0 0 0 0 0 0 0 0 0 0 0 0 0 0 0 0 0 0 0 0 0 0 0 0 0 0 0 0 0 0 0 0 0 0 0 0 0 0 0 1 1 1 1 1 1 1 1 1 1 1 1 0 0 0 0 0 0 0 0 0 0 0 0 0 0 0 0 0 0 0 0 0 0 0 0 0 0 0 0 0 0 0 0 0 0 0 0 1 1 1 1 1 1 1 1 1 1 1 1 0 0 0 0 0 0 0 0 0 0 0 0 0 0 0 0 0 0 0 0 0 0 0 0 0 0 0 0 0 0 0 0 0 0 0 0 0 0 0 0 0 0 0 0 0 0 0 0 0 0 0 0 0 0 0 0 0 0 0 0 0 0 0 0 0 0 0 0 0 0 0 0 0 0 0 0 0 0 0 0 0 0 0 0 0 0 0 0 0 0 0 0 0 0 0 0 0 0 0 0 0 0 0 0 0 0 0 0 0 0 0 0 0 0 0 0 0 0 0 0 0 0 0 0 0 0 0 0 0 0 0 0 0 0 0 0 0 0 0 0 0 0 0 0 0 0 0 0 0 0 0 0 0 0 0 0 0 0 0 0 0 0 0 0 0 0 0 0 0 0 0 0 0 0 0 0 0 0 0 0 0 0 0 0 0 0 0 0 0 0 0 0 0 0 0 0 0 0 0 0 0 0 0 0 0 0 0 0 0 0 0 1 1 1 1 1 1 1 1 1 1 1 1 1 1 1 1 1 1 0 0 0 0 0 0 0 0 0 0 0 0 0 0 0 0 0 0 0 0 0 0 0 0 0 0 0 0 0 0 0 0 0 0 0 0 0 0 0 0 0 0 0 0 0 0 0 0 0 0 0 0 0 0 0 0 0 0 0 0 0 0 0 0 0 0 0 0 0 0 0 0 0 0 0 0 0 0 0 0 1 1 1 1 1 1 1 1 </DataArray>
</CellData>
</Piece>
</UnstructuredGrid>
</VTKFile>